<?xml version="1.0" encoding="UTF-8"?>

<!-- generated on 2022-11-23 20:16:18 by Eclipse SUMO GUI Version 1.14.1
<configuration xmlns:xsi="http://www.w3.org/2001/XMLSchema-instance" xsi:noNamespaceSchemaLocation="http://sumo.dlr.de/xsd/sumoConfiguration.xsd">

    <input>
        <net-file value="C:\Dev\vsp-sumo\scenario\osm.net.xml"/>
        <route-files value="C:\Dev\vsp-sumo\scenario\osm_activitygen.merged.rou.xml,C:\Dev\vsp-sumo\scenario\osm_pt.rou.xml"/>
        <additional-files value="C:\Dev\vsp-sumo\scenario\osm_polygons.add.xml,C:\Dev\vsp-sumo\scenario\basic.vType.xml,C:\Dev\vsp-sumo\scenario\osm_stops.add.xml,C:\Dev\vsp-sumo\scenario\osm_complete_parking_areas.add.xml,C:\Dev\vsp-sumo\scenario\osm_parking_rerouters.add.xml,C:\Dev\vsp-sumo\scenario\osm_taxi_stands.add.xml,C:\Dev\vsp-sumo\scenario\osm_taxi_rerouters.add.xml"/>
    </input>

    <output>
        <output-prefix value="output."/>
        <summary-output value="C:\Dev\vsp-sumo\scenario\summary.xml"/>
        <person-summary-output value="C:\Dev\vsp-sumo\scenario\person.summary.xml"/>
        <tripinfo-output value="C:\Dev\vsp-sumo\scenario\tripinfo.xml"/>
        <tripinfo-output.write-unfinished value="false"/>
        <statistic-output value="C:\Dev\vsp-sumo\scenario\statistics.xml"/>
    </output>

    <time>
        <begin value="37800"/>
        <end value="42000"/>
        <step-length value="1"/>
    </time>

    <processing>
        <lateral-resolution value="0.8"/>
        <ignore-junction-blocker value="60"/>
        <ignore-route-errors value="true"/>
        <collision.action value="teleport"/>
        <time-to-teleport value="300"/>
        <max-depart-delay value="900"/>
        <time-to-impatience value="120"/>
        <parking.maneuver value="true"/>
        <pedestrian.model value="striping"/>
        <pedestrian.striping.stripe-width value="0.55"/>
        <pedestrian.striping.dawdling value="0.2"/>
        <pedestrian.striping.jamtime value="60"/>
        <pedestrian.striping.jamtime.crossing value="10"/>
        <pedestrian.striping.reserve-oncoming value="0.25"/>
        <pedestrian.striping.reserve-oncoming.junctions value="0.34"/>
        <ride.stop-tolerance value="25"/>
    </processing>

    <routing>
        <routing-algorithm value="astar"/>
        <persontrip.walkfactor value="0.75"/>
        <persontrip.transfer.car-walk value="parkingAreas,allJunctions"/>
        <persontrip.transfer.taxi-walk value="parkingAreas,allJunctions"/>
        <persontrip.transfer.walk-taxi value="parkingAreas,allJunctions"/>
        <persontrip.taxi.waiting-time value="300"/>
        <device.rerouting.probability value="1"/>
        <device.rerouting.period value="300"/>
        <device.rerouting.pre-period value="300"/>
        <device.rerouting.bike-speeds value="true"/>
        <person-device.rerouting.probability value="1"/>
        <person-device.rerouting.period value="300"/>
    </routing>

    <report>
        <verbose value="true"/>
        <no-warnings value="false"/>
        <error-log value="errors.txt"/>
        <duration-log.disable value="false"/>
        <duration-log.statistics value="true"/>
        <no-step-log value="false"/>
    </report>

    <taxi_device>
        <device.taxi.dispatch-algorithm value="greedy"/>
        <device.taxi.dispatch-algorithm.output value="C:\Dev\vsp-sumo\scenario\taxi.dispatch.xml"/>
        <device.taxi.dispatch-period value="60"/>
        <device.taxi.idle-algorithm value="stop"/>
        <device.taxi.idle-algorithm.output value="C:\Dev\vsp-sumo\scenario\taxi.idle.xml"/>
    </taxi_device>

    <traci_server>
        <remote-port value="8883"/>
    </traci_server>

    <random_number>
        <seed value="42"/>
    </random_number>

    <gui_only>
        <gui-settings-file value="C:\Dev\vsp-sumo\scenario\default-gui.xml"/>
        <start value="true"/>
        <delay value="0"/>
    </gui_only>

</configuration>
-->

<tripinfos xmlns:xsi="http://www.w3.org/2001/XMLSchema-instance" xsi:noNamespaceSchemaLocation="http://sumo.dlr.de/xsd/tripinfo_file.xsd">
    <tripinfo id="pt_bus_63-N:0.0" depart="37939.00" departLane="-463622074#0_1" departPos="12.10" departPosLat="0.00" departSpeed="0.00" departDelay="0.00" arrival="38082.00" arrivalLane="-453725263#0_1" arrivalPos="67.79" arrivalPosLat="0.00" arrivalSpeed="10.55" duration="143.00" routeLength="472.88" waitingTime="17.00" waitingCount="2" stopTime="62.00" timeLoss="38.21" rerouteNo="0" devices="tripinfo_pt_bus_63-N:0.0 routing_pt_bus_63-N:0.0" vType="pt_bus" speedFactor="1.00" vaporized=""/>
    <tripinfo id="pt_bus_51-O:0.0" depart="37815.00" departLane="20188675#2_1" departPos="12.10" departPosLat="0.00" departSpeed="0.00" departDelay="0.00" arrival="38245.00" arrivalLane="-1082402424#0_2" arrivalPos="0.70" arrivalPosLat="0.00" arrivalSpeed="10.78" duration="430.00" routeLength="2138.05" waitingTime="59.00" waitingCount="9" stopTime="92.00" timeLoss="144.62" rerouteNo="0" devices="tripinfo_pt_bus_51-O:0.0 routing_pt_bus_51-O:0.0" vType="pt_bus" speedFactor="1.00" vaporized=""</tripinfos>
nfo id="pt_bus_124-N:0.0" depart="38162.00" departLane="-20184585#2_1" departPos="12.10" departPosLat="0.00" departSpeed="0.00" departDelay="0.00" arrival="38265.00" arrivalLane="-20184585#0_1" arrivalPos="77.30" arrivalPosLat="0.00" arrivalSpeed="6.48" duration="103.00" routeLength="160.47" waitingTime="4.00" waitingCount="3" stopTime="59.00" timeLoss="29.26" rerouteNo="0" devices="tripinfo_pt_bus_124-N:0.0 routing_pt_bus_124-N:0.0" vType="pt_bus" speedFactor="1.00" vaporized=""/>
    <tripinfo id="pt_bus_124-S:0.0" depart="38153.00" departLane="453998154#1_1" departPos="7.70" departPosLat="0.00" departSpeed="0.00" departDelay="0.00" arrival="38266.00" arrivalLane="20184585#2_1" arrivalPos="41.08" arrivalPosLat="0.00" arrivalSpeed="4.33" duration="113.00" routeLength="253.42" waitingTime="3.00" waitingCount="2" stopTime="60.00" timeLoss="34.01" rerouteNo="0" devices="tripinfo_pt_bus_124-S:0.0 routing_pt_bus_124-S:0.0" vType="pt_bus" speedFactor="1.00" vaporized=""/>
    <tripinfo id="pt_subway_2:0.0" depart="37817.00" departLane="-1082752884#0_0" departPos="109.60" departPosLat="0.00" departSpeed="0.00" departDelay="0.00" arrival="38267.00" arrivalLane="1082752884#1_0" arrivalPos="3617.57" arrivalPosLat="0.00" arrivalSpeed="27.78" duration="450.00" routeLength="6187.46" waitingTime="2.00" waitingCount="2" stopTime="150.00" timeLoss="80.75" rerouteNo="0" devices="tripinfo_pt_subway_2:0.0 routing_pt_subway_2:0.0" vType="pt_subway" speedFactor="1.00" vaporized=""/>
    <tripinfo id="pt_bus_160-E:0.0" depart="38189.00" departLane="48168928#3_1" departPos="9.82" departPosLat="0.00" departSpeed="0.00" departDelay="0.00" arrival="38336.00" arrivalLane="464094283#1_1" arrivalPos="12.61" arrivalPosLat="0.00" arrivalSpeed="7.79" duration="147.00" routeLength="584.02" waitingTime="0.00" waitingCount="0" stopTime="62.00" timeLoss="14.00" rerouteNo="0" devices="tripinfo_pt_bus_160-E:0.0 routing_pt_bus_160-E:0.0" vType="pt_bus" speedFactor="1.00" vaporized=""/>
</tripinfos>
