<?xml version="1.0" encoding="UTF-8"?>

<!-- generated on 2022-10-23 11:58:34 by Eclipse SUMO GUI Version 1.14.1
<configuration xmlns:xsi="http://www.w3.org/2001/XMLSchema-instance" xsi:noNamespaceSchemaLocation="http://sumo.dlr.de/xsd/sumoConfiguration.xsd">

    <input>
        <net-file value="C:\Dev\vsp-sumo\scenario\osm.net.xml"/>
        <route-files value="C:\Dev\vsp-sumo\scenario\osm_activitygen.merged.rou.xml,C:\Dev\vsp-sumo\scenario\osm_pt.rou.xml"/>
        <additional-files value="C:\Dev\vsp-sumo\scenario\osm_polygons.add.xml,C:\Dev\vsp-sumo\scenario\basic.vType.xml,C:\Dev\vsp-sumo\scenario\osm_stops.add.xml,C:\Dev\vsp-sumo\scenario\osm_complete_parking_areas.add.xml,C:\Dev\vsp-sumo\scenario\osm_parking_rerouters.add.xml,C:\Dev\vsp-sumo\scenario\osm_taxi_stands.add.xml,C:\Dev\vsp-sumo\scenario\osm_taxi_rerouters.add.xml"/>
    </input>

    <output>
        <output-prefix value="output."/>
        <summary-output value="C:\Dev\vsp-sumo\scenario\summary.xml"/>
        <person-summary-output value="C:\Dev\vsp-sumo\scenario\person.summary.xml"/>
        <tripinfo-output value="C:\Dev\vsp-sumo\scenario\tripinfo.xml"/>
        <tripinfo-output.write-unfinished value="false"/>
        <statistic-output value="C:\Dev\vsp-sumo\scenario\statistics.xml"/>
    </output>

    <time>
        <begin value="30000"/>
        <end value="43000"/>
        <step-length value="1"/>
    </time>

    <processing>
        <lateral-resolution value="0.8"/>
        <ignore-junction-blocker value="60"/>
        <ignore-route-errors value="true"/>
        <collision.action value="teleport"/>
        <time-to-teleport value="300"/>
        <max-depart-delay value="900"/>
        <time-to-impatience value="120"/>
        <parking.maneuver value="true"/>
        <pedestrian.model value="striping"/>
        <pedestrian.striping.stripe-width value="0.55"/>
        <pedestrian.striping.dawdling value="0.2"/>
        <pedestrian.striping.jamtime value="60"/>
        <pedestrian.striping.jamtime.crossing value="10"/>
        <pedestrian.striping.reserve-oncoming value="0.25"/>
        <pedestrian.striping.reserve-oncoming.junctions value="0.34"/>
        <ride.stop-tolerance value="25"/>
    </processing>

    <routing>
        <routing-algorithm value="astar"/>
        <persontrip.walkfactor value="0.75"/>
        <persontrip.transfer.car-walk value="parkingAreas,allJunctions"/>
        <persontrip.transfer.taxi-walk value="parkingAreas,allJunctions"/>
        <persontrip.transfer.walk-taxi value="parkingAreas,allJunctions"/>
        <persontrip.taxi.waiting-time value="300"/>
        <device.rerouting.probability value="1"/>
        <device.rerouting.period value="300"/>
        <device.rerouting.pre-period value="300"/>
        <device.rerouting.bike-speeds value="true"/>
        <person-device.rerouting.probability value="1"/>
        <person-device.rerouting.period value="300"/>
    </routing>

    <report>
        <verbose value="true"/>
        <no-warnings value="false"/>
        <error-log value="errors.txt"/>
        <duration-log.disable value="false"/>
        <duration-log.statistics value="true"/>
        <no-step-log value="false"/>
    </report>

    <taxi_device>
        <device.taxi.dispatch-algorithm value="greedy"/>
        <device.taxi.dispatch-algorithm.output value="C:\Dev\vsp-sumo\scenario\taxi.dispatch.xml"/>
        <device.taxi.dispatch-period value="60"/>
        <device.taxi.idle-algorithm value="stop"/>
        <device.taxi.idle-algorithm.output value="C:\Dev\vsp-sumo\scenario\taxi.idle.xml"/>
    </taxi_device>

    <traci_server>
        <remote-port value="8883"/>
    </traci_server>

    <random_number>
        <seed value="42"/>
    </random_number>

    <gui_only>
        <gui-settings-file value="C:\Dev\vsp-sumo\scenario\default-gui.xml"/>
        <start value="true"/>
        <delay value="0"/>
    </gui_only>

</configuration>
-->

<tripinfos xmlns:xsi="http://www.w3.org/2001/XMLSchema-instance" xsi:noNamespaceSchemaLocation="http://sumo.dlr.de/xsd/tripinfo_file.xsd">
    <tripinfo id="pt_bus_144-O:0.0" depart="30098.00" departLane="465159973_1" departPos="12.10" departPosLat="0.00" departSpeed="0.00" departDelay="0.00" arrival="30228.00" arrivalLane="165217772#1_1" arrivalPos="46.44" arrivalPosLat="0.00" arrivalSpeed="0.81" duration="130.00" routeLength="334.22" waitingTime="20.00" waitingCount="2" stopTime="60.00" timeLoss="56.18" rerouteNo="0" devices="tripinfo_pt_bus_144-O:0.0 routing_pt_bus_144-O:0.0" vType="pt_bus" speedFactor="1.00" vaporized=""/>
    <tripinfo id="pt_bus_57-O:0.0" depart="30166.00" departLane="-1042470293#2_1" departPos="7.50" departPosLat="0.00" departSpeed="0.00" departDelay="0.00" arrival="30270.00" arrivalLane="-20113825#0_1" arrivalPos="19.26" arrivalPosLat="0.00" arrivalSpeed="1.06" duration="104.00" routeLength="275.16" waitingTime="1.00" waitingCount="1" stopTime="60.00" timeLoss="10.80" rerouteNo="0" devices="tripinfo_pt_bus_57-O:0.0 routing_pt_bus_57-O:0.0" vType="pt_bus" speedFactor="1.00" vaporized=""/>
    <tripinfo id="pt_bus_24-E:0.0" depart="30060.00" departLane="561490751#0_1" departPos="6.45" departPosLat="0.00" departSpeed="0.00" departDelay="0.00" arrival="30336.00" arrivalLane="165217870#1_1" arrivalPos="70.06" arrivalPosLat="0.00" arrivalSpeed="0.84" duration="276.00" routeLength="759.78" waitingTime="29.00" waitingCount="6" stopTime="148.00" timeLoss="100.62" rerouteNo="0" devices="tripinfo_pt_bus_24-E:0.0 routing_pt_bus_24-E:0.0" vType="pt_bus" speedFactor="1.00" vaporized=""/>
    <tripinfo id="pt_bus_165-N:0.0" depart="30027.00" departLane="-165217827#4_1" departPos="0.20" departPosLat="0.00" departSpeed="0.00" departDelay="0.00" arrival="30343.00" arrivalLane="727849147#0_1" arrivalPos="52.79" arrivalPosLat="0.00" arrivalSpeed="3.61" duration="316.00" routeLength="769.50" waitingTime="30.00" waitingCount="4" stopTime="167.00" timeLoss="93.37" rerouteNo="0" devices="tripinfo_pt_bus_165-N:0.0 routing_pt_bus_165-N:0.0" vType="pt_bus" speedFactor="1.00" vaporized=""/>
    <tripinfo id="pt_bus_15-E:0.0" depart="30139.00" departLane="394910074#0_1" departPos="12.10" departPosLat="0.00" departSpeed="0.00" departDelay="0.00" arrival="30380.00" arrivalLane="329694554#11_1" arrivalPos="70.71" arrivalPosLat="0.00" arrivalSpeed="0.80" duration="241.00" routeLength="738.78" waitingTime="2.00" waitingCount="2" stopTime="124.00" timeLoss="28.23" rerouteNo="0" devices="tripinfo_pt_bus_15-E:0.0 routing_pt_bus_15-E:0.0" vType="pt_bus" speedFactor="1.00" vaporized=""/>
    <tripinfo id="pt_bus_427-O:0.0" depart="30125.00" departLane="455083984#2_1" departPos="12.10" departPosLat="0.00" departSpeed="0.00" departDelay="0.00" arrival="30394.00" arrivalLane="330150736#0_1" arrivalPos="75.95" arrivalPosLat="0.00" arrivalSpeed="7.85" duration="269.00" routeLength="753.27" waitingTime="31.00" waitingCount="4" stopTime="110.00" timeLoss="89.30" rerouteNo="0" devices="tripinfo_pt_bus_427-O:0.0 routing_pt_bus_427-O:0.0" vType="pt_bus" speedFactor="1.00" vaporized=""/>
    <tripinfo id="pt_bus_144-E:0.0" depart="30102.00" departLane="329694559#0_1" departPos="8.58" departPosLat="0.00" departSpeed="0.00" departDelay="0.00" arrival="30398.00" arrivalLane="143920959#0_1" arrivalPos="47.43" arrivalPosLat="0.00" arrivalSpeed="0.64" duration="296.00" routeLength="921.17" waitingTime="23.00" waitingCount="3" stopTime="148.00" timeLoss="100.01" rerouteNo="0" devices="tripinfo_pt_bus_144-E:0.0 routing_pt_bus_144-E:0.0" vType="pt_bus" speedFactor="1.00" vaporized=""/>
    <tripinfo id="sv_1#1" depart="30100.00" departLane="20112455#4_1" departPos="5.10" departPosLat="0.00" departSpeed="0.00" departDelay="0.00" arrival="30409.00" arrivalLane="455083994#1_2" arrivalPos="226.89" arrivalPosLat="0.00" arrivalSpeed="10.28" duration="309.00" routeLength="2105.79" waitingTime="60.00" waitingCount="4" stopTime="0.00" timeLoss="97.40" rerouteNo="1" devices="tripinfo_sv_1#1 routing_sv_1#1" vType="passenger1" speedFactor="0.98" vaporized=""/>
    <tripinfo id="pt_bus_427-E:0.0" depart="30119.00" departLane="330150736#0_1" departPos="12.10" departPosLat="0.00" departSpeed="0.00" departDelay="0.00" arrival="30438.00" arrivalLane="455083970#1_1" arrivalPos="78.49" arrivalPosLat="0.00" arrivalSpeed="2.74" duration="319.00" routeLength="872.13" waitingTime="80.00" waitingCount="6" stopTime="107.00" timeLoss="159.07" rerouteNo="0" devices="tripinfo_pt_bus_427-E:0.0 routing_pt_bus_427-E:0.0" vType="pt_bus" speedFactor="1.00" vaporized=""/>
    <tripinfo id="pt_bus_75-N:0.0" depart="30331.00" departLane="456353760#1_1" departPos="12.10" departPosLat="0.00" departSpeed="0.00" departDelay="0.00" arrival="30465.00" arrivalLane="37722302#1_1" arrivalPos="175.68" arrivalPosLat="0.00" arrivalSpeed="1.00" duration="134.00" routeLength="315.73" waitingTime="3.00" waitingCount="1" stopTime="79.00" timeLoss="20.85" rerouteNo="0" devices="tripinfo_pt_bus_75-N:0.0 routing_pt_bus_75-N:0.0" vType="pt_bus" speedFactor="1.00" vaporized=""/>
    <tripinfo id="pt_bus_24-O:0.0" depart="30093.00" departLane="-465408860#0_1" departPos="0.20" departPosLat="0.00" departSpeed="0.00" departDelay="0.00" arrival="30472.00" arrivalLane="-329067231#5_1" arrivalPos="103.56" arrivalPosLat="0.00" arrivalSpeed="9.15" duration="379.00" routeLength="907.17" waitingTime="54.00" waitingCount="6" stopTime="193.00" timeLoss="146.69" rerouteNo="0" devices="tripinfo_pt_bus_24-O:0.0 routing_pt_bus_24-O:0.0" vType="pt_bus" speedFactor="1.00" vaporized=""/>
    <tripinfo id="pt_bus_747-E:0.0" depart="30015.00" departLane="792160913#1_1" departPos="12.10" departPosLat="0.00" departSpeed="0.00" departDelay="0.00" arrival="30485.00" arrivalLane="-41258976#2_2" arrivalPos="52.00" arrivalPosLat="0.00" arrivalSpeed="0.93" duration="470.00" routeLength="2263.08" waitingTime="154.00" waitingCount="9" stopTime="51.00" timeLoss="279.63" rerouteNo="0" devices="tripinfo_pt_bus_747-E:0.0 routing_pt_bus_747-E:0.0" vType="pt_bus" speedFactor="1.00" vaporized=""/>
    <tripinfo id="pt_bus_150-E:0.0" depart="30133.00" departLane="394910074#0_1" departPos="12.10" departPosLat="0.00" departSpeed="0.00" departDelay="0.00" arrival="30499.00" arrivalLane="455083970#1_1" arrivalPos="78.49" arrivalPosLat="0.00" arrivalSpeed="2.60" duration="366.00" routeLength="1209.61" waitingTime="35.00" waitingCount="5" stopTime="164.00" timeLoss="142.22" rerouteNo="0" devices="tripinfo_pt_bus_150-E:0.0 routing_pt_bus_150-E:0.0" vType="pt_bus" speedFactor="1.00" vaporized=""/>
    <tripinfo id="pt_bus_104-O:0.0" depart="30381.00" departLane="329694558_1" departPos="12.10" departPosLat="0.00" departSpeed="0.00" departDelay="0.00" arrival="30555.00" arrivalLane="-329067231#5_1" arrivalPos="103.56" arrivalPosLat="0.00" arrivalSpeed="8.99" duration="174.00" routeLength="551.65" waitingTime="2.00" waitingCount="2" stopTime="89.00" timeLoss="43.01" rerouteNo="0" devices="tripinfo_pt_bus_104-O:0.0 routing_pt_bus_104-O:0.0" vType="pt_bus" speedFactor="1.00" vaporized=""/>
    <tripinfo id="pt_bus_104-E:0.0" depart="30383.00" departLane="561490751#0_1" departPos="6.45" departPosLat="0.00" departSpeed="0.00" departDelay="0.00" arrival="30562.00" arrivalLane="165217839#2_1" arrivalPos="19.05" arrivalPosLat="0.00" arrivalSpeed="4.11" duration="179.00" routeLength="403.40" waitingTime="21.00" waitingCount="4" stopTime="85.00" timeLoss="62.47" rerouteNo="0" devices="tripinfo_pt_bus_104-E:0.0 routing_pt_bus_104-E:0.0" vType="pt_bus" speedFactor="1.00" vaporized=""/>
    <tripinfo id="sv_3#1" depart="30300.00" departLane="133806980#1_1" departPos="5.10" departPosLat="0.00" departSpeed="0.00" departDelay="0.00" arrival="30581.00" arrivalLane="463677228#1_1" arrivalPos="58.48" arrivalPosLat="0.00" arrivalSpeed="8.53" duration="281.00" routeLength="1851.87" waitingTime="95.00" waitingCount="6" stopTime="0.00" timeLoss="137.48" rerouteNo="1" devices="tripinfo_sv_3#1 routing_sv_3#1" vType="passenger1" speedFactor="1.08" vaporized=""/>
    <tripinfo id="pt_bus_138-E:0.0" depart="30419.00" departLane="561490751#0_1" departPos="6.45" departPosLat="0.00" departSpeed="0.00" departDelay="0.00" arrival="30601.00" arrivalLane="165217839#2_1" arrivalPos="19.05" arrivalPosLat="0.00" arrivalSpeed="3.80" duration="182.00" routeLength="403.40" waitingTime="21.00" waitingCount="3" stopTime="90.00" timeLoss="60.28" rerouteNo="0" devices="tripinfo_pt_bus_138-E:0.0 routing_pt_bus_138-E:0.0" vType="pt_bus" speedFactor="1.00" vaporized=""/>
    <tripinfo id="sv_4#1" depart="30400.00" departLane="1051822950#9_1" departPos="5.10" departPosLat="0.00" departSpeed="0.00" departDelay="0.00" arrival="30607.00" arrivalLane="-329694555#0_1" arrivalPos="28.24" arrivalPosLat="0.00" arrivalSpeed="9.77" duration="207.00" routeLength="2000.50" waitingTime="26.00" waitingCount="3" stopTime="0.00" timeLoss="53.29" rerouteNo="1" devices="tripinfo_sv_4#1 routing_sv_4#1" vType="passenger1" speedFactor="1.24" vaporized=""/>
    <tripinfo id="pt_bus_138-O:0.0" depart="30425.00" departLane="329694558_1" departPos="12.10" departPosLat="0.00" departSpeed="0.00" departDelay="5.00" arrival="30611.00" arrivalLane="-329067231#5_1" arrivalPos="103.56" arrivalPosLat="0.00" arrivalSpeed="9.11" duration="186.00" routeLength="551.65" waitingTime="21.00" waitingCount="3" stopTime="64.00" timeLoss="80.14" rerouteNo="0" devices="tripinfo_pt_bus_138-O:0.0 routing_pt_bus_138-O:0.0" vType="pt_bus" speedFactor="1.00" vaporized=""/>
    <tripinfo id="pt_bus_90-E:0.0" depart="30371.00" departLane="165217874_1" departPos="12.10" departPosLat="0.00" departSpeed="0.00" departDelay="0.00" arrival="30615.00" arrivalLane="92352263#2_1" arrivalPos="169.33" arrivalPosLat="0.00" arrivalSpeed="1.13" duration="244.00" routeLength="598.21" waitingTime="28.00" waitingCount="2" stopTime="118.00" timeLoss="60.37" rerouteNo="0" devices="tripinfo_pt_bus_90-E:0.0 routing_pt_bus_90-E:0.0" vType="pt_bus" speedFactor="1.00" vaporized=""/>
    <tripinfo id="pt_bus_166-N:0.0" depart="30422.00" departLane="-41258974#1_1" departPos="12.10" departPosLat="0.00" departSpeed="0.00" departDelay="0.00" arrival="30629.00" arrivalLane="727849147#0_1" arrivalPos="52.79" arrivalPosLat="0.00" arrivalSpeed="3.41" duration="207.00" routeLength="531.54" waitingTime="10.00" waitingCount="1" stopTime="120.00" timeLoss="53.07" rerouteNo="0" devices="tripinfo_pt_bus_166-N:0.0 routing_pt_bus_166-N:0.0" vType="pt_bus" speedFactor="1.00" vaporized=""/>
    <tripinfo id="pt_bus_108-O:0.0" depart="30389.00" departLane="-329694557_1" departPos="12.10" departPosLat="0.00" departSpeed="0.00" departDelay="0.00" arrival="30650.00" arrivalLane="463671314#1_1" arrivalPos="145.35" arrivalPosLat="0.00" arrivalSpeed="3.06" duration="261.00" routeLength="739.57" waitingTime="2.00" waitingCount="2" stopTime="156.00" timeLoss="41.12" rerouteNo="0" devices="tripinfo_pt_bus_108-O:0.0 routing_pt_bus_108-O:0.0" vType="pt_bus" speedFactor="1.00" vaporized=""/>
    <tripinfo id="pt_bus_90-O:0.0" depart="30365.00" departLane="-329694557_1" departPos="12.10" departPosLat="0.00" departSpeed="0.00" departDelay="0.00" arrival="30656.00" arrivalLane="-92352264_1" arrivalPos="130.20" arrivalPosLat="0.00" arrivalSpeed="0.86" duration="291.00" routeLength="610.66" waitingTime="10.00" waitingCount="1" stopTime="180.00" timeLoss="42.49" rerouteNo="0" devices="tripinfo_pt_bus_90-O:0.0 routing_pt_bus_90-O:0.0" vType="pt_bus" speedFactor="1.00" vaporized=""/>
    <tripinfo id="pt_bus_150-O:0.0" depart="30132.00" departLane="455083984#2_1" departPos="12.10" departPosLat="0.00" departSpeed="0.00" departDelay="0.00" arrival="30675.00" arrivalLane="165217839#2_1" arrivalPos="19.05" arrivalPosLat="0.00" arrivalSpeed="1.18" duration="543.00" routeLength="1350.68" waitingTime="101.00" waitingCount="8" stopTime="247.00" timeLoss="232.00" rerouteNo="0" devices="tripinfo_pt_bus_150-O:0.0 routing_pt_bus_150-O:0.0" vType="pt_bus" speedFactor="1.00" vaporized=""/>
    <tripinfo id="pt_bus_107-N:0.0" depart="30055.00" departLane="1042470293#0_1" departPos="12.10" departPosLat="0.00" departSpeed="0.00" departDelay="0.00" arrival="30693.00" arrivalLane="37722302#1_1" arrivalPos="175.68" arrivalPosLat="-0.25" arrivalSpeed="0.89" duration="638.00" routeLength="1855.88" waitingTime="63.00" waitingCount="7" stopTime="302.00" timeLoss="156.37" rerouteNo="0" devices="tripinfo_pt_bus_107-N:0.0 routing_pt_bus_107-N:0.0" vType="pt_bus" speedFactor="1.00" vaporized=""/>
    <tripinfo id="pt_bus_107-S:0.0" depart="30058.00" departLane="-354710422#0_1" departPos="12.10" departPosLat="0.00" departSpeed="0.00" departDelay="0.00" arrival="30702.00" arrivalLane="-1042470293#0_1" arrivalPos="94.54" arrivalPosLat="0.00" arrivalSpeed="1.01" duration="644.00" routeLength="1921.38" waitingTime="198.00" waitingCount="9" stopTime="181.00" timeLoss="275.31" rerouteNo="0" devices="tripinfo_pt_bus_107-S:0.0 routing_pt_bus_107-S:0.0" vType="pt_bus" speedFactor="1.00" vaporized=""/>
    <tripinfo id="pt_bus_15-O:0.0" depart="30160.00" departLane="329384217#8_1" departPos="12.10" departPosLat="0.00" departSpeed="0.00" departDelay="0.00" arrival="30703.00" arrivalLane="165217839#2_1" arrivalPos="19.05" arrivalPosLat="0.00" arrivalSpeed="1.13" duration="543.00" routeLength="1210.53" waitingTime="169.00" waitingCount="9" stopTime="155.00" timeLoss="252.60" rerouteNo="0" devices="tripinfo_pt_bus_15-O:0.0 routing_pt_bus_15-O:0.0" vType="pt_bus" speedFactor="1.00" vaporized=""/>
    <tripinfo id="pt_bus_108-E:0.0" depart="30388.00" departLane="509777703#0_1" departPos="12.10" departPosLat="0.00" departSpeed="0.00" departDelay="0.00" arrival="30713.00" arrivalLane="329694559#3_1" arrivalPos="18.90" arrivalPosLat="0.00" arrivalSpeed="0.82" duration="325.00" routeLength="794.98" waitingTime="105.00" waitingCount="3" stopTime="117.00" timeLoss="162.84" rerouteNo="0" devices="tripinfo_pt_bus_108-E:0.0 routing_pt_bus_108-E:0.0" vType="pt_bus" speedFactor="1.00" vaporized=""/>
    <tripinfo id="pt_bus_66-N:0.0" depart="30227.00" departLane="1051530916#0_1" departPos="7.50" departPosLat="0.00" departSpeed="0.00" departDelay="0.00" arrival="30776.00" arrivalLane="727849147#0_1" arrivalPos="52.79" arrivalPosLat="0.00" arrivalSpeed="3.61" duration="549.00" routeLength="1432.57" waitingTime="119.00" waitingCount="9" stopTime="212.00" timeLoss="232.72" rerouteNo="0" devices="tripinfo_pt_bus_66-N:0.0 routing_pt_bus_66-N:0.0" vType="pt_bus" speedFactor="1.00" vaporized=""/>
    <tripinfo id="pt_bus_66-S:0.0" depart="30222.00" departLane="48678910#0_1" departPos="12.10" departPosLat="0.00" departSpeed="0.00" departDelay="0.00" arrival="30806.00" arrivalLane="-455083993#2_1" arrivalPos="68.94" arrivalPosLat="0.00" arrivalSpeed="9.54" duration="584.00" routeLength="1561.86" waitingTime="77.00" waitingCount="9" stopTime="265.00" timeLoss="188.81" rerouteNo="0" devices="tripinfo_pt_bus_66-S:0.0 routing_pt_bus_66-S:0.0" vType="pt_bus" speedFactor="1.00" vaporized=""/>
    <tripinfo id="sv_5#1" depart="30500.00" departLane="-329067231#5_1" departPos="5.10" departPosLat="0.00" departSpeed="0.00" departDelay="0.00" arrival="30808.00" arrivalLane="455083970#1_2" arrivalPos="78.49" arrivalPosLat="0.00" arrivalSpeed="20.28" duration="308.00" routeLength="2137.27" waitingTime="119.00" waitingCount="7" stopTime="0.00" timeLoss="178.18" rerouteNo="1" devices="tripinfo_sv_5#1 routing_sv_5#1" vType="passenger1" speedFactor="1.01" vaporized=""/>
    <tripinfo id="pt_bus_144-O:0.1" depart="30698.00" departLane="465159973_1" departPos="12.10" departPosLat="0.00" departSpeed="0.00" departDelay="0.00" arrival="30828.00" arrivalLane="165217772#1_1" arrivalPos="46.44" arrivalPosLat="0.00" arrivalSpeed="1.14" duration="130.00" routeLength="334.22" waitingTime="23.00" waitingCount="3" stopTime="62.00" timeLoss="53.80" rerouteNo="0" devices="tripinfo_pt_bus_144-O:0.1 routing_pt_bus_144-O:0.1" vType="pt_bus" speedFactor="1.00" vaporized=""/>
    <tripinfo id="pt_bus_57-O:0.1" depart="30766.00" departLane="-1042470293#2_1" departPos="7.50" departPosLat="0.00" departSpeed="0.00" departDelay="0.00" arrival="30870.00" arrivalLane="-20113825#0_1" arrivalPos="19.26" arrivalPosLat="0.00" arrivalSpeed="0.87" duration="104.00" routeLength="275.16" waitingTime="1.00" waitingCount="1" stopTime="62.00" timeLoss="8.80" rerouteNo="0" devices="tripinfo_pt_bus_57-O:0.1 routing_pt_bus_57-O:0.1" vType="pt_bus" speedFactor="1.00" vaporized=""/>
    <tripinfo id="pt_bus_74-N:0.0" depart="30326.00" departLane="37722304_1" departPos="12.10" departPosLat="0.00" departSpeed="0.00" departDelay="0.00" arrival="30892.00" arrivalLane="37722302#1_1" arrivalPos="175.68" arrivalPosLat="0.00" arrivalSpeed="0.72" duration="566.00" routeLength="1348.91" waitingTime="181.00" waitingCount="8" stopTime="167.00" timeLoss="272.66" rerouteNo="0" devices="tripinfo_pt_bus_74-N:0.0 routing_pt_bus_74-N:0.0" vType="pt_bus" speedFactor="1.00" vaporized=""/>
    <tripinfo id="pt_bus_36-O:0.0" depart="30497.00" departLane="975251637#1_1" departPos="12.10" departPosLat="0.00" departSpeed="0.00" departDelay="0.00" arrival="30905.00" arrivalLane="545490137#1_1" arrivalPos="123.44" arrivalPosLat="0.00" arrivalSpeed="0.62" duration="408.00" routeLength="1449.20" waitingTime="67.00" waitingCount="5" stopTime="130.00" timeLoss="125.02" rerouteNo="0" devices="tripinfo_pt_bus_36-O:0.0 routing_pt_bus_36-O:0.0" vType="pt_bus" speedFactor="1.00" vaporized=""/>
    <tripinfo id="pt_bus_165-S:0.0" depart="30136.00" departLane="453745802_1" departPos="12.10" departPosLat="0.00" departSpeed="0.00" departDelay="0.00" arrival="30934.00" arrivalLane="-455083993#2_1" arrivalPos="68.94" arrivalPosLat="0.00" arrivalSpeed="1.01" duration="798.00" routeLength="1400.48" waitingTime="325.00" waitingCount="6" stopTime="276.00" timeLoss="405.34" rerouteNo="0" devices="tripinfo_pt_bus_165-S:0.0 routing_pt_bus_165-S:0.0" vType="pt_bus" speedFactor="1.00" vaporized=""/>
    <tripinfo id="pt_bus_24-E:0.1" depart="30660.00" departLane="561490751#0_1" departPos="6.45" departPosLat="0.00" departSpeed="0.00" departDelay="0.00" arrival="30936.00" arrivalLane="165217870#1_1" arrivalPos="70.06" arrivalPosLat="0.00" arrivalSpeed="0.92" duration="276.00" routeLength="759.78" waitingTime="27.00" waitingCount="5" stopTime="148.00" timeLoss="100.62" rerouteNo="0" devices="tripinfo_pt_bus_24-E:0.1 routing_pt_bus_24-E:0.1" vType="pt_bus" speedFactor="1.00" vaporized=""/>
    <tripinfo id="pt_bus_165-N:0.1" depart="30627.00" departLane="-165217827#4_1" departPos="0.20" departPosLat="0.00" departSpeed="0.00" departDelay="0.00" arrival="30943.00" arrivalLane="727849147#0_1" arrivalPos="52.79" arrivalPosLat="0.00" arrivalSpeed="4.15" duration="316.00" routeLength="769.50" waitingTime="77.00" waitingCount="3" stopTime="130.00" timeLoss="130.56" rerouteNo="0" devices="tripinfo_pt_bus_165-N:0.1 routing_pt_bus_165-N:0.1" vType="pt_bus" speedFactor="1.00" vaporized=""/>
    <tripinfo id="sv_6#1" depart="30600.00" departLane="975251638_1" departPos="5.10" departPosLat="0.00" departSpeed="0.00" departDelay="0.00" arrival="30964.00" arrivalLane="-20112792#4_1" arrivalPos="112.99" arrivalPosLat="0.00" arrivalSpeed="8.57" duration="364.00" routeLength="3152.24" waitingTime="85.00" waitingCount="7" stopTime="0.00" timeLoss="149.01" rerouteNo="1" devices="tripinfo_sv_6#1 routing_sv_6#1" vType="passenger1" speedFactor="1.04" vaporized=""/>
    <tripinfo id="pt_bus_15-E:0.1" depart="30739.00" departLane="394910074#0_1" departPos="12.10" departPosLat="0.00" departSpeed="0.00" departDelay="0.00" arrival="30980.00" arrivalLane="329694554#11_1" arrivalPos="70.71" arrivalPosLat="0.00" arrivalSpeed="0.99" duration="241.00" routeLength="738.78" waitingTime="4.00" waitingCount="3" stopTime="123.00" timeLoss="29.21" rerouteNo="0" devices="tripinfo_pt_bus_15-E:0.1 routing_pt_bus_15-E:0.1" vType="pt_bus" speedFactor="1.00" vaporized=""/>
    <tripinfo id="pt_bus_747-E:0.1" depart="30615.00" departLane="792160913#1_1" departPos="12.10" departPosLat="0.00" departSpeed="0.00" departDelay="0.00" arrival="30992.00" arrivalLane="-41258976#2_2" arrivalPos="52.00" arrivalPosLat="0.00" arrivalSpeed="0.77" duration="377.00" routeLength="2263.78" waitingTime="69.00" waitingCount="8" stopTime="51.00" timeLoss="187.56" rerouteNo="0" devices="tripinfo_pt_bus_747-E:0.1 routing_pt_bus_747-E:0.1" vType="pt_bus" speedFactor="1.00" vaporized=""/>
    <tripinfo id="pt_bus_427-O:0.1" depart="30725.00" departLane="455083984#2_1" departPos="12.10" departPosLat="0.00" departSpeed="0.00" departDelay="0.00" arrival="30996.00" arrivalLane="330150736#0_1" arrivalPos="75.95" arrivalPosLat="0.00" arrivalSpeed="7.22" duration="271.00" routeLength="753.27" waitingTime="28.00" waitingCount="6" stopTime="103.00" timeLoss="98.42" rerouteNo="0" devices="tripinfo_pt_bus_427-O:0.1 routing_pt_bus_427-O:0.1" vType="pt_bus" speedFactor="1.00" vaporized=""/>
    <tripinfo id="pt_bus_144-E:0.1" depart="30702.00" departLane="329694559#0_1" departPos="8.58" departPosLat="0.00" departSpeed="0.00" departDelay="0.00" arrival="30998.00" arrivalLane="143920959#0_1" arrivalPos="47.43" arrivalPosLat="0.00" arrivalSpeed="0.93" duration="296.00" routeLength="921.17" waitingTime="6.00" waitingCount="2" stopTime="176.00" timeLoss="71.25" rerouteNo="0" devices="tripinfo_pt_bus_144-E:0.1 routing_pt_bus_144-E:0.1" vType="pt_bus" speedFactor="1.00" vaporized=""/>
    <tripinfo id="pt_bus_427-E:0.1" depart="30719.00" departLane="330150736#0_1" departPos="12.10" departPosLat="0.00" departSpeed="0.00" departDelay="0.00" arrival="31037.00" arrivalLane="455083970#1_1" arrivalPos="78.49" arrivalPosLat="0.00" arrivalSpeed="2.69" duration="318.00" routeLength="872.13" waitingTime="98.00" waitingCount="5" stopTime="91.00" timeLoss="173.77" rerouteNo="0" devices="tripinfo_pt_bus_427-E:0.1 routing_pt_bus_427-E:0.1" vType="pt_bus" speedFactor="1.00" vaporized=""/>
    <tripinfo id="pt_bus_36-E:0.0" depart="30485.00" departLane="-545490137#1_1" departPos="12.10" departPosLat="0.00" departSpeed="0.00" departDelay="0.00" arrival="31063.00" arrivalLane="133806980#5_1" arrivalPos="40.30" arrivalPosLat="0.00" arrivalSpeed="0.84" duration="578.00" routeLength="1684.28" waitingTime="50.00" waitingCount="7" stopTime="281.00" timeLoss="135.38" rerouteNo="0" devices="tripinfo_pt_bus_36-E:0.0 routing_pt_bus_36-E:0.0" vType="pt_bus" speedFactor="1.00" vaporized=""/>
    <tripinfo id="pt_bus_75-N:0.1" depart="30931.00" departLane="456353760#1_1" departPos="12.10" departPosLat="0.00" departSpeed="0.00" departDelay="0.00" arrival="31065.00" arrivalLane="37722302#1_1" arrivalPos="175.68" arrivalPosLat="0.00" arrivalSpeed="1.16" duration="134.00" routeLength="315.73" waitingTime="31.00" waitingCount="1" stopTime="52.00" timeLoss="47.80" rerouteNo="0" devices="tripinfo_pt_bus_75-N:0.1 routing_pt_bus_75-N:0.1" vType="pt_bus" speedFactor="1.00" vaporized=""/>
    <tripinfo id="pt_bus_24-O:0.1" depart="30693.00" departLane="-465408860#0_1" departPos="0.20" departPosLat="0.00" departSpeed="0.00" departDelay="0.00" arrival="31072.00" arrivalLane="-329067231#5_1" arrivalPos="103.56" arrivalPosLat="0.00" arrivalSpeed="9.33" duration="379.00" routeLength="907.17" waitingTime="32.00" waitingCount="6" stopTime="216.00" timeLoss="123.71" rerouteNo="0" devices="tripinfo_pt_bus_24-O:0.1 routing_pt_bus_24-O:0.1" vType="pt_bus" speedFactor="1.00" vaporized=""/>
    <tripinfo id="pt_bus_150-E:0.1" depart="30733.00" departLane="394910074#0_1" departPos="12.10" departPosLat="0.00" departSpeed="0.00" departDelay="0.00" arrival="31099.00" arrivalLane="455083970#1_1" arrivalPos="78.49" arrivalPosLat="0.00" arrivalSpeed="2.54" duration="366.00" routeLength="1209.61" waitingTime="25.00" waitingCount="6" stopTime="168.00" timeLoss="137.74" rerouteNo="0" devices="tripinfo_pt_bus_150-E:0.1 routing_pt_bus_150-E:0.1" vType="pt_bus" speedFactor="1.00" vaporized=""/>
    <tripinfo id="pt_bus_61-E:0.0" depart="30201.00" departLane="122076249_1" departPos="12.10" departPosLat="0.00" departSpeed="0.00" departDelay="0.00" arrival="31127.00" arrivalLane="360802894#1_1" arrivalPos="66.27" arrivalPosLat="0.00" arrivalSpeed="5.13" duration="926.00" routeLength="1408.28" waitingTime="519.00" waitingCount="11" stopTime="171.00" timeLoss="631.17" rerouteNo="0" devices="tripinfo_pt_bus_61-E:0.0 routing_pt_bus_61-E:0.0" vType="pt_bus" speedFactor="1.00" vaporized=""/>
    <tripinfo id="pt_bus_104-O:0.1" depart="30981.00" departLane="329694558_1" departPos="12.10" departPosLat="0.00" departSpeed="0.00" departDelay="0.00" arrival="31156.00" arrivalLane="-329067231#5_1" arrivalPos="103.56" arrivalPosLat="0.00" arrivalSpeed="8.92" duration="175.00" routeLength="551.65" waitingTime="10.00" waitingCount="3" stopTime="71.00" timeLoss="62.49" rerouteNo="0" devices="tripinfo_pt_bus_104-O:0.1 routing_pt_bus_104-O:0.1" vType="pt_bus" speedFactor="1.00" vaporized=""/>
    <tripinfo id="pt_bus_104-E:0.1" depart="30983.00" departLane="561490751#0_1" departPos="6.45" departPosLat="0.00" departSpeed="0.00" departDelay="0.00" arrival="31162.00" arrivalLane="165217839#2_1" arrivalPos="19.05" arrivalPosLat="0.00" arrivalSpeed="3.72" duration="179.00" routeLength="403.40" waitingTime="2.00" waitingCount="2" stopTime="115.00" timeLoss="32.56" rerouteNo="0" devices="tripinfo_pt_bus_104-E:0.1 routing_pt_bus_104-E:0.1" vType="pt_bus" speedFactor="1.00" vaporized=""/>
    <tripinfo id="pt_bus_138-E:0.1" depart="31019.00" departLane="561490751#0_1" departPos="6.45" departPosLat="0.00" departSpeed="0.00" departDelay="0.00" arrival="31206.00" arrivalLane="165217839#2_1" arrivalPos="19.05" arrivalPosLat="0.00" arrivalSpeed="4.02" duration="187.00" routeLength="403.40" waitingTime="33.00" waitingCount="5" stopTime="78.00" timeLoss="77.32" rerouteNo="0" devices="tripinfo_pt_bus_138-E:0.1 routing_pt_bus_138-E:0.1" vType="pt_bus" speedFactor="1.00" vaporized=""/>