<?xml version="1.0" encoding="UTF-8"?>

<!-- generated on 2022-10-06 23:42:28 by Eclipse SUMO GUI Version 1.14.1
<configuration xmlns:xsi="http://www.w3.org/2001/XMLSchema-instance" xsi:noNamespaceSchemaLocation="http://sumo.dlr.de/xsd/sumoConfiguration.xsd">

    <input>
        <net-file value="C:\Dev\vsp-sumo\scenario\osm.net.xml"/>
        <route-files value="C:\Dev\vsp-sumo\scenario\osm_activitygen.merged.rou.xml,C:\Dev\vsp-sumo\scenario\osm_pt.rou.xml"/>
        <additional-files value="C:\Dev\vsp-sumo\scenario\osm_polygons.add.xml,C:\Dev\vsp-sumo\scenario\basic.vType.xml,C:\Dev\vsp-sumo\scenario\osm_stops.add.xml,C:\Dev\vsp-sumo\scenario\osm_complete_parking_areas.add.xml,C:\Dev\vsp-sumo\scenario\osm_parking_rerouters.add.xml,C:\Dev\vsp-sumo\scenario\osm_taxi_stands.add.xml,C:\Dev\vsp-sumo\scenario\osm_taxi_rerouters.add.xml"/>
    </input>

    <output>
        <output-prefix value="output."/>
        <summary-output value="C:\Dev\vsp-sumo\scenario\summary.xml"/>
        <person-summary-output value="C:\Dev\vsp-sumo\scenario\person.summary.xml"/>
        <tripinfo-output value="C:\Dev\vsp-sumo\scenario\tripinfo.xml"/>
        <tripinfo-output.write-unfinished value="false"/>
        <statistic-output value="C:\Dev\vsp-sumo\scenario\statistics.xml"/>
    </output>

    <time>
        <begin value="30000"/>
        <end value="42000"/>
        <step-length value="1"/>
    </time>

    <processing>
        <lateral-resolution value="0.8"/>
        <ignore-junction-blocker value="60"/>
        <ignore-route-errors value="true"/>
        <collision.action value="teleport"/>
        <time-to-teleport value="300"/>
        <max-depart-delay value="900"/>
        <time-to-impatience value="120"/>
        <parking.maneuver value="true"/>
        <pedestrian.model value="striping"/>
        <pedestrian.striping.stripe-width value="0.55"/>
        <pedestrian.striping.dawdling value="0.2"/>
        <pedestrian.striping.jamtime value="60"/>
        <pedestrian.striping.jamtime.crossing value="10"/>
        <pedestrian.striping.reserve-oncoming value="0.25"/>
        <pedestrian.striping.reserve-oncoming.junctions value="0.34"/>
        <ride.stop-tolerance value="25"/>
    </processing>

    <routing>
        <routing-algorithm value="astar"/>
        <persontrip.walkfactor value="0.75"/>
        <persontrip.transfer.car-walk value="parkingAreas,allJunctions"/>
        <persontrip.transfer.taxi-walk value="parkingAreas,allJunctions"/>
        <persontrip.transfer.walk-taxi value="parkingAreas,allJunctions"/>
        <persontrip.taxi.waiting-time value="300"/>
        <device.rerouting.probability value="1"/>
        <device.rerouting.period value="300"/>
        <device.rerouting.pre-period value="300"/>
        <device.rerouting.bike-speeds value="true"/>
        <person-device.rerouting.probability value="1"/>
        <person-device.rerouting.period value="300"/>
    </routing>

    <report>
        <verbose value="true"/>
        <no-warnings value="false"/>
        <error-log value="errors.txt"/>
        <duration-log.disable value="false"/>
        <duration-log.statistics value="true"/>
        <no-step-log value="false"/>
    </report>

    <taxi_device>
        <device.taxi.dispatch-algorithm value="greedy"/>
        <device.taxi.dispatch-algorithm.output value="C:\Dev\vsp-sumo\scenario\taxi.dispatch.xml"/>
        <device.taxi.dispatch-period value="60"/>
        <device.taxi.idle-algorithm value="stop"/>
        <device.taxi.idle-algorithm.output value="C:\Dev\vsp-sumo\scenario\taxi.idle.xml"/>
    </taxi_device>

    <traci_server>
        <remote-port value="8883"/>
    </traci_server>

    <random_number>
        <seed value="42"/>
    </random_number>

    <gui_only>
        <gui-settings-file value="C:\Dev\vsp-sumo\scenario\default-gui.xml"/>
        <start value="true"/>
        <delay value="0"/>
    </gui_only>

</configuration>
-->

<tripinfos xmlns:xsi="http://www.w3.org/2001/XMLSchema-instance" xsi:noNamespaceSchemaLocation="http://sumo.dlr.de/xsd/tripinfo_file.xsd">
    <tripinfo id="sv_1#1" depart="30100.00" departLane="20112455#4_1" departPos="5.10" departPosLat="0.00" departSpeed="0.00" departDelay="0.00" arrival="30206.00" arrivalLane="111771071#3_2" arrivalPos="98.10" arrivalPosLat="0.00" arrivalSpeed="7.91" duration="106.00" routeLength="692.36" waitingTime="11.00" waitingCount="1" stopTime="0.00" timeLoss="20.25" rerouteNo="1" devices="tripinfo_sv_1#1 routing_sv_1#1" vType="passenger1" speedFactor="0.98" vaporized=""/>
    <tripinfo id="pt_bus_144-O:0.0" depart="30098.00" departLane="465159973_1" departPos="12.10" departPosLat="0.00" departSpeed="0.00" departDelay="0.00" arrival="30228.00" arrivalLane="165217772#1_1" arrivalPos="46.44" arrivalPosLat="0.00" arrivalSpeed="1.00" duration="130.00" routeLength="334.22" waitingTime="20.00" waitingCount="2" stopTime="61.00" timeLoss="55.06" rerouteNo="0" devices="tripinfo_pt_bus_144-O:0.0 routing_pt_bus_144-O:0.0" vType="pt_bus" speedFactor="1.00" vaporized=""/>
    <tripinfo id="pt_bus_57-O:0.0" depart="30166.00" departLane="-1042470293#2_1" departPos="7.50" departPosLat="0.00" departSpeed="0.00" departDelay="0.00" arrival="30270.00" arrivalLane="-20113825#0_1" arrivalPos="19.26" arrivalPosLat="0.00" arrivalSpeed="0.98" duration="104.00" routeLength="275.16" waitingTime="0.00" waitingCount="0" stopTime="62.00" timeLoss="8.82" rerouteNo="0" devices="tripinfo_pt_bus_57-O:0.0 routing_pt_bus_57-O:0.0" vType="pt_bus" speedFactor="1.00" vaporized=""/>
    <tripinfo id="pt_bus_24-E:0.0" depart="30060.00" departLane="561490751#0_1" departPos="6.45" departPosLat="0.00" departSpeed="0.00" departDelay="0.00" arrival="30336.00" arrivalLane="165217870#1_1" arrivalPos="70.06" arrivalPosLat="0.00" arrivalSpeed="0.62" duration="276.00" routeLength="759.78" waitingTime="27.00" waitingCount="6" stopTime="148.00" timeLoss="100.63" rerouteNo="0" devices="tripinfo_pt_bus_24-E:0.0 routing_pt_bus_24-E:0.0" vType="pt_bus" speedFactor="1.00" vaporized=""/>
    <tripinfo id="pt_bus_165-N:0.0" depart="30027.00" departLane="-165217827#4_1" departPos="0.20" departPosLat="0.00" departSpeed="0.00" departDelay="0.00" arrival="30343.00" arrivalLane="727849147#0_1" arrivalPos="52.79" arrivalPosLat="0.00" arrivalSpeed="3.30" duration="316.00" routeLength="769.50" waitingTime="30.00" waitingCount="4" stopTime="167.00" timeLoss="93.54" rerouteNo="0" devices="tripinfo_pt_bus_165-N:0.0 routing_pt_bus_165-N:0.0" vType="pt_bus" speedFactor="1.00" vaporized=""/>
    <tripinfo id="pt_bus_15-E:0.0" depart="30139.00" departLane="394910074#0_1" departPos="12.10" departPosLat="0.00" departSpeed="0.00" departDelay="0.00" arrival="30380.00" arrivalLane="329694554#11_1" arrivalPos="70.71" arrivalPosLat="0.00" arrivalSpeed="0.91" duration="241.00" routeLength="738.78" waitingTime="2.00" waitingCount="2" stopTime="124.00" timeLoss="28.22" rerouteNo="0" devices="tripinfo_pt_bus_15-E:0.0 routing_pt_bus_15-E:0.0" vType="pt_bus" speedFactor="1.00" vaporized=""/>
    <tripinfo id="pt_bus_427-O:0.0" depart="30125.00" departLane="455083984#2_1" departPos="12.10" departPosLat="0.00" departSpeed="0.00" departDelay="0.00" arrival="30390.00" arrivalLane="330150736#0_1" arrivalPos="75.95" arrivalPosLat="0.00" arrivalSpeed="7.39" duration="265.00" routeLength="753.27" waitingTime="19.00" waitingCount="3" stopTime="122.00" timeLoss="73.71" rerouteNo="0" devices="tripinfo_pt_bus_427-O:0.0 routing_pt_bus_427-O:0.0" vType="pt_bus" speedFactor="1.00" vaporized=""/>
    <tripinfo id="pt_bus_144-E:0.0" depart="30102.00" departLane="329694559#0_1" departPos="8.58" departPosLat="0.00" departSpeed="0.00" departDelay="0.00" arrival="30398.00" arrivalLane="143920959#0_1" arrivalPos="47.43" arrivalPosLat="0.00" arrivalSpeed="1.17" duration="296.00" routeLength="921.17" waitingTime="23.00" waitingCount="3" stopTime="148.00" timeLoss="99.53" rerouteNo="0" devices="tripinfo_pt_bus_144-E:0.0 routing_pt_bus_144-E:0.0" vType="pt_bus" speedFactor="1.00" vaporized=""/>
    <tripinfo id="pt_bus_427-E:0.0" depart="30119.00" departLane="330150736#0_1" departPos="12.10" departPosLat="0.00" departSpeed="0.00" departDelay="0.00" arrival="30419.00" arrivalLane="455083970#1_1" arrivalPos="78.49" arrivalPosLat="0.00" arrivalSpeed="2.60" duration="300.00" routeLength="872.13" waitingTime="63.00" waitingCount="5" stopTime="114.00" timeLoss="132.99" rerouteNo="0" devices="tripinfo_pt_bus_427-E:0.0 routing_pt_bus_427-E:0.0" vType="pt_bus" speedFactor="1.00" vaporized=""/>
    <tripinfo id="pt_bus_75-N:0.0" depart="30331.00" departLane="456353760#1_1" departPos="12.10" departPosLat="0.00" departSpeed="0.00" departDelay="0.00" arrival="30465.00" arrivalLane="37722302#1_1" arrivalPos="175.68" arrivalPosLat="0.00" arrivalSpeed="1.16" duration="134.00" routeLength="315.73" waitingTime="4.00" waitingCount="1" stopTime="80.00" timeLoss="19.81" rerouteNo="0" devices="tripinfo_pt_bus_75-N:0.0 routing_pt_bus_75-N:0.0" vType="pt_bus" speedFactor="1.00" vaporized=""/>
    <tripinfo id="pt_bus_24-O:0.0" depart="30093.00" departLane="-465408860#0_1" departPos="0.20" departPosLat="0.00" departSpeed="0.00" departDelay="0.00" arrival="30472.00" arrivalLane="-329067231#5_1" arrivalPos="103.56" arrivalPosLat="0.00" arrivalSpeed="8.68" duration="379.00" routeLength="907.17" waitingTime="53.00" waitingCount="6" stopTime="193.00" timeLoss="146.97" rerouteNo="0" devices="tripinfo_pt_bus_24-O:0.0 routing_pt_bus_24-O:0.0" vType="pt_bus" speedFactor="1.00" vaporized=""/>
    <tripinfo id="pt_bus_747-E:0.0" depart="30015.00" departLane="792160913#1_1" departPos="12.10" departPosLat="0.00" departSpeed="0.00" departDelay="0.00" arrival="30484.00" arrivalLane="-41258976#2_2" arrivalPos="52.00" arrivalPosLat="0.00" arrivalSpeed="0.96" duration="469.00" routeLength="2263.08" waitingTime="155.00" waitingCount="8" stopTime="51.00" timeLoss="279.53" rerouteNo="0" devices="tripinfo_pt_bus_747-E:0.0 routing_pt_bus_747-E:0.0" vType="pt_bus" speedFactor="1.00" vaporized=""/>
    <tripinfo id="pt_bus_150-E:0.0" depart="30133.00" departLane="394910074#0_1" departPos="12.10" departPosLat="0.00" departSpeed="0.00" departDelay="0.00" arrival="30499.00" arrivalLane="455083970#1_1" arrivalPos="78.49" arrivalPosLat="0.00" arrivalSpeed="2.73" duration="366.00" routeLength="1209.61" waitingTime="35.00" waitingCount="5" stopTime="164.00" timeLoss="141.78" rerouteNo="0" devices="tripinfo_pt_bus_150-E:0.0 routing_pt_bus_150-E:0.0" vType="pt_bus" speedFactor="1.00" vaporized=""/>
    <tripinfo id="pt_bus_104-O:0.0" depart="30381.00" departLane="329694558_1" departPos="12.10" departPosLat="0.00" departSpeed="0.00" departDelay="0.00" arrival="30555.00" arrivalLane="-329067231#5_1" arrivalPos="103.56" arrivalPosLat="0.00" arrivalSpeed="9.53" duration="174.00" routeLength="551.65" waitingTime="2.00" waitingCount="2" stopTime="89.00" timeLoss="43.21" rerouteNo="0" devices="tripinfo_pt_bus_104-O:0.0 routing_pt_bus_104-O:0.0" vType="pt_bus" speedFactor="1.00" vaporized=""/>
    <tripinfo id="pt_bus_104-E:0.0" depart="30383.00" departLane="561490751#0_1" departPos="6.45" departPosLat="0.00" departSpeed="0.00" departDelay="0.00" arrival="30562.00" arrivalLane="165217839#2_1" arrivalPos="19.05" arrivalPosLat="0.00" arrivalSpeed="4.11" duration="179.00" routeLength="403.40" waitingTime="8.00" waitingCount="3" stopTime="103.00" timeLoss="43.98" rerouteNo="0" devices="tripinfo_pt_bus_104-E:0.0 routing_pt_bus_104-E:0.0" vType="pt_bus" speedFactor="1.00" vaporized=""/>
    <tripinfo id="sv_3#1" depart="30300.00" departLane="133806980#1_1" departPos="5.10" departPosLat="0.00" departSpeed="0.00" departDelay="0.00" arrival="30581.00" arrivalLane="463677228#1_1" arrivalPos="58.48" arrivalPosLat="0.00" arrivalSpeed="8.66" duration="281.00" routeLength="1851.87" waitingTime="98.00" waitingCount="6" stopTime="0.00" timeLoss="137.44" rerouteNo="1" devices="tripinfo_sv_3#1 routing_sv_3#1" vType="passenger1" speedFactor="1.08" vaporized=""/>
    <tripinfo id="pt_bus_138-E:0.0" depart="30419.00" departLane="561490751#0_1" departPos="6.45" departPosLat="0.00" departSpeed="0.00" departDelay="0.00" arrival="30601.00" arrivalLane="165217839#2_1" arrivalPos="19.05" arrivalPosLat="0.00" arrivalSpeed="3.43" duration="182.00" routeLength="403.40" waitingTime="20.00" waitingCount="3" stopTime="89.00" timeLoss="61.39" rerouteNo="0" devices="tripinfo_pt_bus_138-E:0.0 routing_pt_bus_138-E:0.0" vType="pt_bus" speedFactor="1.00" vaporized=""/>
    <tripinfo id="sv_4#1" depart="30400.00" departLane="1051822950#9_1" departPos="5.10" departPosLat="0.00" departSpeed="0.00" departDelay="0.00" arrival="30607.00" arrivalLane="-329694555#0_1" arrivalPos="28.24" arrivalPosLat="0.00" arrivalSpeed="10.03" duration="207.00" routeLength="2000.50" waitingTime="24.00" waitingCount="3" stopTime="0.00" timeLoss="52.92" rerouteNo="1" devices="tripinfo_sv_4#1 routing_sv_4#1" vType="passenger1" speedFactor="1.24" vaporized=""/>
    <tripinfo id="pt_bus_138-O:0.0" depart="30426.00" departLane="329694558_1" departPos="12.10" departPosLat="0.00" departSpeed="0.00" departDelay="6.00" arrival="30608.00" arrivalLane="-329067231#5_1" arrivalPos="103.56" arrivalPosLat="0.00" arrivalSpeed="8.53" duration="182.00" routeLength="551.65" waitingTime="2.00" waitingCount="2" stopTime="98.00" timeLoss="42.40" rerouteNo="0" devices="tripinfo_pt_bus_138-O:0.0 routing_pt_bus_138-O:0.0" vType="pt_bus" speedFactor="1.00" vaporized=""/>
    <tripinfo id="pt_bus_90-E:0.0" depart="30371.00" departLane="165217874_1" departPos="12.10" departPosLat="0.00" departSpeed="0.00" departDelay="0.00" arrival="30616.00" arrivalLane="92352263#2_1" arrivalPos="169.33" arrivalPosLat="0.00" arrivalSpeed="2.23" duration="245.00" routeLength="598.21" waitingTime="28.00" waitingCount="2" stopTime="119.00" timeLoss="59.91" rerouteNo="0" devices="tripinfo_pt_bus_90-E:0.0 routing_pt_bus_90-E:0.0" vType="pt_bus" speedFactor="1.00" vaporized=""/>
    <tripinfo id="pt_bus_166-N:0.0" depart="30422.00" departLane="-41258974#1_1" departPos="12.10" departPosLat="0.00" departSpeed="0.00" departDelay="0.00" arrival="30629.00" arrivalLane="727849147#0_1" arrivalPos="52.79" arrivalPosLat="0.00" arrivalSpeed="3.41" duration="207.00" routeLength="531.54" waitingTime="11.00" waitingCount="2" stopTime="118.00" timeLoss="54.78" rerouteNo="0" devices="tripinfo_pt_bus_166-N:0.0 routing_pt_bus_166-N:0.0" vType="pt_bus" speedFactor="1.00" vaporized=""/>
    <tripinfo id="pt_bus_108-O:0.0" depart="30389.00" departLane="-329694557_1" departPos="12.10" departPosLat="0.00" departSpeed="0.00" departDelay="0.00" arrival="30649.00" arrivalLane="463671314#1_1" arrivalPos="145.35" arrivalPosLat="0.00" arrivalSpeed="2.34" duration="260.00" routeLength="739.57" waitingTime="1.00" waitingCount="1" stopTime="157.00" timeLoss="39.34" rerouteNo="0" devices="tripinfo_pt_bus_108-O:0.0 routing_pt_bus_108-O:0.0" vType="pt_bus" speedFactor="1.00" vaporized=""/>
    <tripinfo id="pt_bus_90-O:0.0" depart="30365.00" departLane="-329694557_1" departPos="12.10" departPosLat="0.00" departSpeed="0.00" departDelay="0.00" arrival="30656.00" arrivalLane="-92352264_1" arrivalPos="130.20" arrivalPosLat="0.00" arrivalSpeed="0.76" duration="291.00" routeLength="610.66" waitingTime="10.00" waitingCount="2" stopTime="177.00" timeLoss="45.18" rerouteNo="0" devices="tripinfo_pt_bus_90-O:0.0 routing_pt_bus_90-O:0.0" vType="pt_bus" speedFactor="1.00" vaporized=""/>
    <tripinfo id="pt_bus_150-O:0.0" depart="30132.00" departLane="455083984#2_1" departPos="12.10" departPosLat="0.00" departSpeed="0.00" departDelay="0.00" arrival="30675.00" arrivalLane="165217839#2_1" arrivalPos="19.05" arrivalPosLat="0.00" arrivalSpeed="0.81" duration="543.00" routeLength="1350.68" waitingTime="105.00" waitingCount="9" stopTime="236.00" timeLoss="242.84" rerouteNo="0" devices="tripinfo_pt_bus_150-O:0.0 routing_pt_bus_150-O:0.0" vType="pt_bus" speedFactor="1.00" vaporized=""/>
    <tripinfo id="pt_bus_107-N:0.0" depart="30055.00" departLane="1042470293#0_1" departPos="12.10" departPosLat="0.00" departSpeed="0.00" departDelay="0.00" arrival="30693.00" arrivalLane="37722302#1_1" arrivalPos="175.68" arrivalPosLat="-0.25" arrivalSpeed="0.99" duration="638.00" routeLength="1855.88" waitingTime="63.00" waitingCount="7" stopTime="300.00" timeLoss="158.34" rerouteNo="0" devices="tripinfo_pt_bus_107-N:0.0 routing_pt_bus_107-N:0.0" vType="pt_bus" speedFactor="1.00" vaporized=""/>
    <tripinfo id="pt_bus_107-S:0.0" depart="30058.00" departLane="-354710422#0_1" departPos="12.10" departPosLat="0.00" departSpeed="0.00" departDelay="0.00" arrival="30702.00" arrivalLane="-1042470293#0_1" arrivalPos="94.54" arrivalPosLat="0.00" arrivalSpeed="0.74" duration="644.00" routeLength="1921.38" waitingTime="196.00" waitingCount="9" stopTime="183.00" timeLoss="273.15" rerouteNo="0" devices="tripinfo_pt_bus_107-S:0.0 routing_pt_bus_107-S:0.0" vType="pt_bus" speedFactor="1.00" vaporized=""/>
    <tripinfo id="pt_bus_15-O:0.0" depart="30160.00" departLane="329384217#8_1" departPos="12.10" departPosLat="0.00" departSpeed="0.00" departDelay="0.00" arrival="30703.00" arrivalLane="165217839#2_1" arrivalPos="19.05" arrivalPosLat="0.00" arrivalSpeed="0.95" duration="543.00" routeLength="1210.53" waitingTime="175.00" waitingCount="11" stopTime="153.00" timeLoss="254.53" rerouteNo="0" devices="tripinfo_pt_bus_15-O:0.0 routing_pt_bus_15-O:0.0" vType="pt_bus" speedFactor="1.00" vaporized=""/>
    <tripinfo id="pt_bus_108-E:0.0" depart="30388.00" departLane="509777703#0_1" departPos="12.10" departPosLat="0.00" departSpeed="0.00" departDelay="0.00" arrival="30715.00" arrivalLane="329694559#3_1" arrivalPos="18.90" arrivalPosLat="0.00" arrivalSpeed="0.90" duration="327.00" routeLength="794.98" waitingTime="104.00" waitingCount="4" stopTime="117.00" timeLoss="165.24" rerouteNo="0" devices="tripinfo_pt_bus_108-E:0.0 routing_pt_bus_108-E:0.0" vType="pt_bus" speedFactor="1.00" vaporized=""/>
    <tripinfo id="pt_bus_66-N:0.0" depart="30227.00" departLane="1051530916#0_1" departPos="7.50" departPosLat="0.00" departSpeed="0.00" departDelay="0.00" arrival="30776.00" arrivalLane="727849147#0_1" arrivalPos="52.79" arrivalPosLat="0.00" arrivalSpeed="3.58" duration="549.00" routeLength="1432.57" waitingTime="111.00" waitingCount="8" stopTime="219.00" timeLoss="225.45" rerouteNo="0" devices="tripinfo_pt_bus_66-N:0.0 routing_pt_bus_66-N:0.0" vType="pt_bus" speedFactor="1.00" vaporized=""/>
    <tripinfo id="sv_5#1" depart="30500.00" departLane="-329067231#5_1" departPos="5.10" departPosLat="0.00" departSpeed="0.00" departDelay="0.00" arrival="30777.00" arrivalLane="455083970#1_2" arrivalPos="78.49" arrivalPosLat="0.00" arrivalSpeed="29.10" duration="277.00" routeLength="2137.27" waitingTime="103.00" waitingCount="6" stopTime="0.00" timeLoss="159.55" rerouteNo="1" devices="tripinfo_sv_5#1 routing_sv_5#1" vType="passenger1" speedFactor="1.12" vaporized=""/>
    <tripinfo id="pt_bus_66-S:0.0" depart="30222.00" departLane="48678910#0_1" departPos="12.10" departPosLat="0.00" departSpeed="0.00" departDelay="0.00" arrival="30805.00" arrivalLane="-455083993#2_1" arrivalPos="68.94" arrivalPosLat="0.00" arrivalSpeed="9.60" duration="583.00" routeLength="1561.86" waitingTime="83.00" waitingCount="9" stopTime="260.00" timeLoss="193.08" rerouteNo="0" devices="tripinfo_pt_bus_66-S:0.0 routing_pt_bus_66-S:0.0" vType="pt_bus" speedFactor="1.00" vaporized=""/>
    <tripinfo id="pt_bus_144-O:0.1" depart="30698.00" departLane="465159973_1" departPos="12.10" departPosLat="0.00" departSpeed="0.00" departDelay="0.00" arrival="30828.00" arrivalLane="165217772#1_1" arrivalPos="46.44" arrivalPosLat="0.00" arrivalSpeed="1.05" duration="130.00" routeLength="334.22" waitingTime="21.00" waitingCount="2" stopTime="61.00" timeLoss="55.00" rerouteNo="0" devices="tripinfo_pt_bus_144-O:0.1 routing_pt_bus_144-O:0.1" vType="pt_bus" speedFactor="1.00" vaporized=""/>
    <tripinfo id="pt_bus_57-O:0.1" depart="30766.00" departLane="-1042470293#2_1" departPos="7.50" departPosLat="0.00" departSpeed="0.00" departDelay="0.00" arrival="30870.00" arrivalLane="-20113825#0_1" arrivalPos="19.26" arrivalPosLat="0.00" arrivalSpeed="0.87" duration="104.00" routeLength="275.16" waitingTime="1.00" waitingCount="1" stopTime="62.00" timeLoss="8.82" rerouteNo="0" devices="tripinfo_pt_bus_57-O:0.1 routing_pt_bus_57-O:0.1" vType="pt_bus" speedFactor="1.00" vaporized=""/>
    <tripinfo id="pt_bus_74-N:0.0" depart="30326.00" departLane="37722304_1" departPos="12.10" departPosLat="0.00" departSpeed="0.00" departDelay="0.00" arrival="30893.00" arrivalLane="37722302#1_1" arrivalPos="175.68" arrivalPosLat="0.00" arrivalSpeed="1.07" duration="567.00" routeLength="1348.91" waitingTime="183.00" waitingCount="8" stopTime="167.00" timeLoss="273.67" rerouteNo="0" devices="tripinfo_pt_bus_74-N:0.0 routing_pt_bus_74-N:0.0" vType="pt_bus" speedFactor="1.00" vaporized=""/>
    <tripinfo id="pt_bus_36-O:0.0" depart="30497.00" departLane="975251637#1_1" departPos="12.10" departPosLat="0.00" departSpeed="0.00" departDelay="0.00" arrival="30906.00" arrivalLane="545490137#1_1" arrivalPos="123.44" arrivalPosLat="0.00" arrivalSpeed="1.16" duration="409.00" routeLength="1449.20" waitingTime="66.00" waitingCount="4" stopTime="130.00" timeLoss="126.04" rerouteNo="0" devices="tripinfo_pt_bus_36-O:0.0 routing_pt_bus_36-O:0.0" vType="pt_bus" speedFactor="1.00" vaporized=""/>
    <tripinfo id="sv_6#1" depart="30600.00" departLane="975251638_1" departPos="5.10" departPosLat="0.00" departSpeed="0.00" departDelay="0.00" arrival="30932.00" arrivalLane="-20112792#4_1" arrivalPos="112.99" arrivalPosLat="0.00" arrivalSpeed="8.37" duration="332.00" routeLength="3152.24" waitingTime="67.00" waitingCount="6" stopTime="0.00" timeLoss="117.57" rerouteNo="1" devices="tripinfo_sv_6#1 routing_sv_6#1" vType="passenger1" speedFactor="1.04" vaporized=""/>
    <tripinfo id="pt_bus_165-S:0.0" depart="30136.00" departLane="453745802_1" departPos="12.10" departPosLat="0.00" departSpeed="0.00" departDelay="0.00" arrival="30934.00" arrivalLane="-455083993#2_1" arrivalPos="68.94" arrivalPosLat="0.00" arrivalSpeed="0.83" duration="798.00" routeLength="1400.48" waitingTime="354.00" waitingCount="7" stopTime="236.00" timeLoss="445.44" rerouteNo="0" devices="tripinfo_pt_bus_165-S:0.0 routing_pt_bus_165-S:0.0" vType="pt_bus" speedFactor="1.00" vaporized=""/>
    <tripinfo id="pt_bus_24-E:0.1" depart="30660.00" departLane="561490751#0_1" departPos="6.45" departPosLat="0.00" departSpeed="0.00" departDelay="0.00" arrival="30936.00" arrivalLane="165217870#1_1" arrivalPos="70.06" arrivalPosLat="0.00" arrivalSpeed="0.75" duration="276.00" routeLength="759.78" waitingTime="27.00" waitingCount="5" stopTime="148.00" timeLoss="100.34" rerouteNo="0" devices="tripinfo_pt_bus_24-E:0.1 routing_pt_bus_24-E:0.1" vType="pt_bus" speedFactor="1.00" vaporized=""/>
    <tripinfo id="pt_bus_165-N:0.1" depart="30627.00" departLane="-165217827#4_1" departPos="0.20" departPosLat="0.00" departSpeed="0.00" departDelay="0.00" arrival="30943.00" arrivalLane="727849147#0_1" arrivalPos="52.79" arrivalPosLat="0.00" arrivalSpeed="3.33" duration="316.00" routeLength="769.50" waitingTime="79.00" waitingCount="4" stopTime="130.00" timeLoss="130.28" rerouteNo="0" devices="tripinfo_pt_bus_165-N:0.1 routing_pt_bus_165-N:0.1" vType="pt_bus" speedFactor="1.00" vaporized=""/>
    <tripinfo id="pt_bus_15-E:0.1" depart="30739.00" departLane="394910074#0_1" departPos="12.10" departPosLat="0.00" departSpeed="0.00" departDelay="0.00" arrival="30980.00" arrivalLane="329694554#11_1" arrivalPos="70.71" arrivalPosLat="0.00" arrivalSpeed="0.87" duration="241.00" routeLength="738.78" waitingTime="4.00" waitingCount="2" stopTime="122.00" timeLoss="30.22" rerouteNo="0" devices="tripinfo_pt_bus_15-E:0.1 routing_pt_bus_15-E:0.1" vType="pt_bus" speedFactor="1.00" vaporized=""/>
    <tripinfo id="pt_bus_747-E:0.1" depart="30615.00" departLane="792160913#1_1" departPos="12.10" departPosLat="0.00" departSpeed="0.00" departDelay="0.00" arrival="30990.00" arrivalLane="-41258976#2_2" arrivalPos="52.00" arrivalPosLat="0.00" arrivalSpeed="1.05" duration="375.00" routeLength="2263.78" waitingTime="64.00" waitingCount="8" stopTime="51.00" timeLoss="184.92" rerouteNo="0" devices="tripinfo_pt_bus_747-E:0.1 routing_pt_bus_747-E:0.1" vType="pt_bus" speedFactor="1.00" vaporized=""/>
    <tripinfo id="pt_bus_427-O:0.1" depart="30725.00" departLane="455083984#2_1" departPos="12.10" departPosLat="0.00" departSpeed="0.00" departDelay="0.00" arrival="30991.00" arrivalLane="330150736#0_1" arrivalPos="75.95" arrivalPosLat="0.00" arrivalSpeed="6.87" duration="266.00" routeLength="753.27" waitingTime="7.00" waitingCount="3" stopTime="136.00" timeLoss="60.71" rerouteNo="0" devices="tripinfo_pt_bus_427-O:0.1 routing_pt_bus_427-O:0.1" vType="pt_bus" speedFactor="1.00" vaporized=""/>
    <tripinfo id="pt_bus_144-E:0.1" depart="30702.00" departLane="329694559#0_1" departPos="8.58" departPosLat="0.00" departSpeed="0.00" departDelay="0.00" arrival="30998.00" arrivalLane="143920959#0_1" arrivalPos="47.43" arrivalPosLat="0.00" arrivalSpeed="1.02" duration="296.00" routeLength="921.17" waitingTime="7.00" waitingCount="3" stopTime="174.00" timeLoss="73.82" rerouteNo="0" devices="tripinfo_pt_bus_144-E:0.1 routing_pt_bus_144-E:0.1" vType="pt_bus" speedFactor="1.00" vaporized=""/>
    <tripinfo id="pt_bus_427-E:0.1" depart="30719.00" departLane="330150736#0_1" departPos="12.10" departPosLat="0.00" departSpeed="0.00" departDelay="0.00" arrival="31040.00" arrivalLane="455083970#1_1" arrivalPos="78.49" arrivalPosLat="0.00" arrivalSpeed="2.69" duration="321.00" routeLength="872.13" waitingTime="98.00" waitingCount="5" stopTime="96.00" timeLoss="171.83" rerouteNo="0" devices="tripinfo_pt_bus_427-E:0.1 routing_pt_bus_427-E:0.1" vType="pt_bus" speedFactor="1.00" vaporized=""/>
    <tripinfo id="pt_bus_36-E:0.0" depart="30485.00" departLane="-545490137#1_1" departPos="12.10" departPosLat="0.00" departSpeed="0.00" departDelay="0.00" arrival="31063.00" arrivalLane="133806980#5_1" arrivalPos="40.30" arrivalPosLat="0.00" arrivalSpeed="1.14" duration="578.00" routeLength="1684.28" waitingTime="53.00" waitingCount="7" stopTime="278.00" timeLoss="138.75" rerouteNo="0" devices="tripinfo_pt_bus_36-E:0.0 routing_pt_bus_36-E:0.0" vType="pt_bus" speedFactor="1.00" vaporized=""/>
    <tripinfo id="pt_bus_75-N:0.1" depart="30931.00" departLane="456353760#1_1" departPos="12.10" departPosLat="0.00" departSpeed="0.00" departDelay="0.00" arrival="31065.00" arrivalLane="37722302#1_1" arrivalPos="175.68" arrivalPosLat="0.00" arrivalSpeed="0.87" duration="134.00" routeLength="315.73" waitingTime="30.00" waitingCount="1" stopTime="53.00" timeLoss="46.83" rerouteNo="0" devices="tripinfo_pt_bus_75-N:0.1 routing_pt_bus_75-N:0.1" vType="pt_bus" speedFactor="1.00" vaporized=""/>
    <tripinfo id="pt_bus_24-O:0.1" depart="30693.00" departLane="-465408860#0_1" departPos="0.20" departPosLat="0.00" departSpeed="0.00" departDelay="0.00" arrival="31073.00" arrivalLane="-329067231#5_1" arrivalPos="103.56" arrivalPosLat="0.00" arrivalSpeed="7.87" duration="380.00" routeLength="907.17" waitingTime="33.00" waitingCount="6" stopTime="217.00" timeLoss="124.21" rerouteNo="0" devices="tripinfo_pt_bus_24-O:0.1 routing_pt_bus_24-O:0.1" vType="pt_bus" speedFactor="1.00" vaporized=""/>
    <tripinfo id="pt_bus_150-E:0.1" depart="30733.00" departLane="394910074#0_1" departPos="12.10" departPosLat="0.00" departSpeed="0.00" departDelay="0.00" arrival="31099.00" arrivalLane="455083970#1_1" arrivalPos="78.49" arrivalPosLat="0.00" arrivalSpeed="3.05" duration="366.00" routeLength="1209.61" waitingTime="28.00" waitingCount="5" stopTime="170.00" timeLoss="135.76" rerouteNo="0" devices="tripinfo_pt_bus_150-E:0.1 routing_pt_bus_150-E:0.1" vType="pt_bus" speedFactor="1.00" vaporized=""/>
    <tripinfo id="pt_bus_61-E:0.0" depart="30201.00" departLane="122076249_1" departPos="12.10" departPosLat="0.00" departSpeed="0.00" departDelay="0.00" arrival="31125.00" arrivalLane="360802894#1_1" arrivalPos="66.27" arrivalPosLat="0.00" arrivalSpeed="5.23" duration="924.00" routeLength="1408.28" waitingTime="521.00" waitingCount="12" stopTime="170.00" timeLoss="630.32" rerouteNo="0" devices="tripinfo_pt_bus_61-E:0.0 routing_pt_bus_61-E:0.0" vType="pt_bus" speedFactor="1.00" vaporized=""/>
    <tripinfo id="pt_bus_104-E:0.1" depart="30983.00" departLane="561490751#0_1" departPos="6.45" departPosLat="0.00" departSpeed="0.00" departDelay="0.00" arrival="31163.00" arrivalLane="165217839#2_1" arrivalPos="19.05" arrivalPosLat="0.00" arrivalSpeed="3.64" duration="180.00" routeLength="403.40" waitingTime="2.00" waitingCount="2" stopTime="118.00" timeLoss="30.06" rerouteNo="0" devices="tripinfo_pt_bus_104-E:0.1 routing_pt_bus_104-E:0.1" vType="pt_bus" speedFactor="1.00" vaporized=""/>
    <tripinfo id="pt_bus_104-O:0.1" depart="30981.00" departLane="329694558_1" departPos="12.10" departPosLat="0.00" departSpeed="0.00" departDelay="0.00" arrival="31171.00" arrivalLane="-329067231#5_1" arrivalPos="103.56" arrivalPosLat="0.00" arrivalSpeed="8.77" duration="190.00" routeLength="551.65" waitingTime="22.00" waitingCount="3" stopTime="71.00" timeLoss="77.47" rerouteNo="0" devices="tripinfo_pt_bus_104-O:0.1 routing_pt_bus_104-O:0.1" vType="pt_bus" speedFactor="1.00" vaporized=""/>
    <tripinfo id="pt_bus_138-E:0.1" depart="31019.00" departLane="561490751#0_1" departPos="6.45" departPosLat="0.00" departSpeed="0.00" departDelay="0.00" arrival="31201.00" arrivalLane="165217839#2_1" arrivalPos="19.05" arrivalPosLat="0.00" arrivalSpeed="3.30" duration="182.00" routeLength="403.40" waitingTime="18.00" waitingCount="4" stopTime="90.00" timeLoss="60.73" rerouteNo="0" devices="tripinfo_pt_bus_138-E:0.1 routing_pt_bus_138-E:0.1" vType="pt_bus" speedFactor="1.00" vaporized=""/>