<?xml version="1.0" encoding="UTF-8"?>

<!-- generated on 2022-09-18 21:03:09 by Eclipse SUMO GUI Version 1.14.1
<configuration xmlns:xsi="http://www.w3.org/2001/XMLSchema-instance" xsi:noNamespaceSchemaLocation="http://sumo.dlr.de/xsd/sumoConfiguration.xsd">

    <input>
        <net-file value="C:\Dev\vsp-sumo\scenario\osm.net.xml"/>
        <route-files value="C:\Dev\vsp-sumo\scenario\osm_activitygen.merged.rou.xml,C:\Dev\vsp-sumo\scenario\osm_pt.rou.xml"/>
        <additional-files value="C:\Dev\vsp-sumo\scenario\osm_polygons.add.xml,C:\Dev\vsp-sumo\scenario\basic.vType.xml,C:\Dev\vsp-sumo\scenario\osm_stops.add.xml,C:\Dev\vsp-sumo\scenario\osm_complete_parking_areas.add.xml,C:\Dev\vsp-sumo\scenario\osm_parking_rerouters.add.xml,C:\Dev\vsp-sumo\scenario\osm_taxi_stands.add.xml,C:\Dev\vsp-sumo\scenario\osm_taxi_rerouters.add.xml"/>
    </input>

    <output>
        <output-prefix value="output."/>
        <summary-output value="C:\Dev\vsp-sumo\scenario\summary.xml"/>
        <person-summary-output value="C:\Dev\vsp-sumo\scenario\person.summary.xml"/>
        <tripinfo-output value="C:\Dev\vsp-sumo\scenario\tripinfo.xml"/>
        <tripinfo-output.write-unfinished value="false"/>
        <statistic-output value="C:\Dev\vsp-sumo\scenario\statistics.xml"/>
    </output>

    <time>
        <begin value="30000"/>
        <end value="35000"/>
        <step-length value="1"/>
    </time>

    <processing>
        <lateral-resolution value="0.8"/>
        <ignore-junction-blocker value="60"/>
        <ignore-route-errors value="true"/>
        <collision.action value="teleport"/>
        <time-to-teleport value="300"/>
        <max-depart-delay value="900"/>
        <time-to-impatience value="120"/>
        <parking.maneuver value="true"/>
        <pedestrian.model value="striping"/>
        <pedestrian.striping.stripe-width value="0.55"/>
        <pedestrian.striping.dawdling value="0.2"/>
        <pedestrian.striping.jamtime value="60"/>
        <pedestrian.striping.jamtime.crossing value="10"/>
        <pedestrian.striping.reserve-oncoming value="0.25"/>
        <pedestrian.striping.reserve-oncoming.junctions value="0.34"/>
        <ride.stop-tolerance value="25"/>
    </processing>

    <routing>
        <routing-algorithm value="astar"/>
        <persontrip.walkfactor value="0.75"/>
        <persontrip.transfer.car-walk value="parkingAreas,allJunctions"/>
        <persontrip.transfer.taxi-walk value="parkingAreas,allJunctions"/>
        <persontrip.transfer.walk-taxi value="parkingAreas,allJunctions"/>
        <persontrip.taxi.waiting-time value="300"/>
        <device.rerouting.probability value="1"/>
        <device.rerouting.period value="300"/>
        <device.rerouting.pre-period value="300"/>
        <device.rerouting.bike-speeds value="true"/>
        <person-device.rerouting.probability value="1"/>
        <person-device.rerouting.period value="300"/>
    </routing>

    <report>
        <verbose value="true"/>
        <no-warnings value="false"/>
        <error-log value="errors.txt"/>
        <duration-log.disable value="false"/>
        <duration-log.statistics value="true"/>
        <no-step-log value="false"/>
    </report>

    <taxi_device>
        <device.taxi.dispatch-algorithm value="greedy"/>
        <device.taxi.dispatch-algorithm.output value="C:\Dev\vsp-sumo\scenario\taxi.dispatch.xml"/>
        <device.taxi.dispatch-period value="60"/>
        <device.taxi.idle-algorithm value="stop"/>
        <device.taxi.idle-algorithm.output value="C:\Dev\vsp-sumo\scenario\taxi.idle.xml"/>
    </taxi_device>

    <traci_server>
        <remote-port value="8883"/>
    </traci_server>

    <random_number>
        <seed value="42"/>
    </random_number>

    <gui_only>
        <gui-settings-file value="C:\Dev\vsp-sumo\scenario\default-gui.xml"/>
        <start value="true"/>
        <delay value="0"/>
    </gui_only>

</configuration>
-->

<tripinfos xmlns:xsi="http://www.w3.org/2001/XMLSchema-instance" xsi:noNamespaceSchemaLocation="http://sumo.dlr.de/xsd/tripinfo_file.xsd">
    <tripinfo id="pt_bus_165-N:0.0" depart="30017.00" departLane="-165217827#4_1" departPos="0.20" departPosLat="0.00" departSpeed="0.00" departDelay="0.00" arrival="30268.00" arrivalLane="4872827_1" arrivalPos="61.61" arrivalPosLat="0.00" arrivalSpeed="7.65" duration="251.00" routeLength="583.32" waitingTime="26.00" waitingCount="4" stopTime="137.00" timeLoss="65.09" rerouteNo="0" devices="tripinfo_pt_bus_165-N:0.0 routing_pt_bus_165-N:0.0" vType="pt_bus" speedFactor="1.00" vaporized=""/>
    <tripinfo id="pt_bus_144-E:0.0" depart="30132.00" departLane="329694559#0_1" departPos="8.58" departPosLat="0.00" departSpeed="0.00" departDelay="0.00" arrival="30282.00" arrivalLane="474841418#1_1" arrivalPos="93.68" arrivalPosLat="0.00" arrivalSpeed="10.70" duration="150.00" routeLength="379.57" waitingTime="1.00" waitingCount="1" stopTime="89.00" timeLoss="32.24" rerouteNo="0" devices="tripinfo_pt_bus_144-E:0.0 routing_pt_bus_144-E:0.0" vType="pt_bus" speedFactor="1.00" vaporized=""/>
    <tripinfo id="pt_bus_24-E:0.0" depart="30093.00" departLane="561490751#0_1" departPos="6.45" departPosLat="0.00" departSpeed="0.00" departDelay="0.00" arrival="30378.00" arrivalLane="165217870#1_1" arrivalPos="70.06" arrivalPosLat="0.00" arrivalSpeed="0.74" duration="285.00" routeLength="759.78" waitingTime="33.00" waitingCount="6" stopTime="153.00" timeLoss="104.34" rerouteNo="0" devices="tripinfo_pt_bus_24-E:0.0 routing_pt_bus_24-E:0.0" vType="pt_bus" speedFactor="1.00" vaporized=""/>
    <tripinfo id="pt_bus_24-O:0.0" depart="30119.00" departLane="-465408860#0_1" departPos="0.20" departPosLat="0.00" departSpeed="0.00" departDelay="0.00" arrival="30416.00" arrivalLane="561490750#0_1" arrivalPos="9.94" arrivalPosLat="0.00" arrivalSpeed="1.16" duration="297.00" routeLength="759.20" waitingTime="37.00" waitingCount="5" stopTime="157.00" timeLoss="112.45" rerouteNo="0" devices="tripinfo_pt_bus_24-O:0.0 routing_pt_bus_24-O:0.0" vType="pt_bus" speedFactor="1.00" vaporized=""/>
    <tripinfo id="sv_1#1" depart="30100.00" departLane="48678911#1_1" departPos="5.10" departPosLat="0.00" departSpeed="0.00" departDelay="0.00" arrival="30421.00" arrivalLane="1051822951#4_1" arrivalPos="58.43" arrivalPosLat="0.00" arrivalSpeed="10.30" duration="321.00" routeLength="148.84" waitingTime="301.00" waitingCount="1" stopTime="0.00" timeLoss="304.13" rerouteNo="0" devices="tripinfo_sv_1#1 routing_sv_1#1" vType="passenger1" speedFactor="0.98" vaporized=""/>
    <tripinfo id="pt_bus_427-E:0.0" depart="30133.00" departLane="330150736#0_1" departPos="12.10" departPosLat="0.00" departSpeed="0.00" departDelay="0.00" arrival="30454.00" arrivalLane="455083970#1_1" arrivalPos="78.49" arrivalPosLat="0.00" arrivalSpeed="2.50" duration="321.00" routeLength="872.77" waitingTime="52.00" waitingCount="5" stopTime="152.00" timeLoss="115.29" rerouteNo="0" devices="tripinfo_pt_bus_427-E:0.0 routing_pt_bus_427-E:0.0" vType="pt_bus" speedFactor="1.00" vaporized=""/>
    <tripinfo id="pt_bus_15-E:0.0" depart="30253.00" departLane="394910074#0_1" departPos="12.10" departPosLat="0.00" departSpeed="0.00" departDelay="0.00" arrival="30509.00" arrivalLane="329694554#11_1" arrivalPos="70.71" arrivalPosLat="0.00" arrivalSpeed="0.92" duration="256.00" routeLength="738.78" waitingTime="11.00" waitingCount="3" stopTime="126.00" timeLoss="41.22" rerouteNo="0" devices="tripinfo_pt_bus_15-E:0.0 routing_pt_bus_15-E:0.0" vType="pt_bus" speedFactor="1.00" vaporized=""/>
    <tripinfo id="pt_bus_427-O:0.0" depart="30136.00" departLane="455083984#2_1" departPos="12.10" departPosLat="0.00" departSpeed="0.00" departDelay="0.00" arrival="30519.00" arrivalLane="330150736#0_1" arrivalPos="75.95" arrivalPosLat="0.00" arrivalSpeed="6.87" duration="383.00" routeLength="754.20" waitingTime="121.00" waitingCount="4" stopTime="136.00" timeLoss="177.22" rerouteNo="0" devices="tripinfo_pt_bus_427-O:0.0 routing_pt_bus_427-O:0.0" vType="pt_bus" speedFactor="1.00" vaporized=""/>
    <tripinfo id="pt_bus_104-O:0.0" depart="30418.00" departLane="329694558_1" departPos="12.10" departPosLat="0.00" departSpeed="0.00" departDelay="0.00" arrival="30521.00" arrivalLane="474841418#0_1" arrivalPos="86.46" arrivalPosLat="0.00" arrivalSpeed="6.63" duration="103.00" routeLength="295.37" waitingTime="0.00" waitingCount="0" stopTime="60.00" timeLoss="23.27" rerouteNo="0" devices="tripinfo_pt_bus_104-O:0.0 routing_pt_bus_104-O:0.0" vType="pt_bus" speedFactor="1.00" vaporized=""/>
    <tripinfo id="pt_bus_150-E:0.0" depart="30204.00" departLane="394910074#0_1" departPos="12.10" departPosLat="0.00" departSpeed="0.00" departDelay="0.00" arrival="30538.00" arrivalLane="455083970#1_1" arrivalPos="78.49" arrivalPosLat="0.00" arrivalSpeed="2.62" duration="334.00" routeLength="1210.25" waitingTime="46.00" waitingCount="3" stopTime="138.00" timeLoss="135.26" rerouteNo="0" devices="tripinfo_pt_bus_150-E:0.0 routing_pt_bus_150-E:0.0" vType="pt_bus" speedFactor="1.00" vaporized=""/>
    <tripinfo id="pt_bus_108-O:0.0" depart="30441.00" departLane="-329694557_1" departPos="12.10" departPosLat="0.00" departSpeed="0.00" departDelay="0.00" arrival="30538.00" arrivalLane="575547253#0_1" arrivalPos="72.19" arrivalPosLat="0.00" arrivalSpeed="4.15" duration="97.00" routeLength="186.15" waitingTime="0.00" waitingCount="0" stopTime="59.00" timeLoss="22.61" rerouteNo="0" devices="tripinfo_pt_bus_108-O:0.0 routing_pt_bus_108-O:0.0" vType="pt_bus" speedFactor="1.00" vaporized=""/>
    <tripinfo id="pt_bus_90-O:0.0" depart="30389.00" departLane="-329694557_1" departPos="12.10" departPosLat="0.00" departSpeed="0.00" departDelay="0.00" arrival="30551.00" arrivalLane="-92352263#3_1" arrivalPos="169.33" arrivalPosLat="0.00" arrivalSpeed="7.98" duration="162.00" routeLength="366.72" waitingTime="11.00" waitingCount="2" stopTime="84.00" timeLoss="38.97" rerouteNo="0" devices="tripinfo_pt_bus_90-O:0.0 routing_pt_bus_90-O:0.0" vType="pt_bus" speedFactor="1.00" vaporized=""/>
    <tripinfo id="pt_bus_104-E:0.0" depart="30422.00" departLane="561490751#0_1" departPos="6.45" departPosLat="0.00" departSpeed="0.00" departDelay="0.00" arrival="30577.00" arrivalLane="165217839#2_1" arrivalPos="19.05" arrivalPosLat="0.00" arrivalSpeed="3.81" duration="155.00" routeLength="403.40" waitingTime="6.00" waitingCount="3" stopTime="87.00" timeLoss="36.56" rerouteNo="0" devices="tripinfo_pt_bus_104-E:0.0 routing_pt_bus_104-E:0.0" vType="pt_bus" speedFactor="1.00" vaporized=""/>
    <tripinfo id="pt_bus_138-O:0.0" depart="30484.00" departLane="329694558_1" departPos="12.10" departPosLat="0.00" departSpeed="0.00" departDelay="0.00" arrival="30599.00" arrivalLane="474841418#0_1" arrivalPos="86.46" arrivalPosLat="0.00" arrivalSpeed="6.96" duration="115.00" routeLength="295.37" waitingTime="0.00" waitingCount="0" stopTime="68.00" timeLoss="26.86" rerouteNo="0" devices="tripinfo_pt_bus_138-O:0.0 routing_pt_bus_138-O:0.0" vType="pt_bus" speedFactor="1.00" vaporized=""/>
    <tripinfo id="pt_bus_166-N:0.0" depart="30485.00" departLane="-41258974#1_1" departPos="12.10" departPosLat="0.00" departSpeed="0.00" departDelay="0.00" arrival="30637.00" arrivalLane="4872827_1" arrivalPos="61.61" arrivalPosLat="0.00" arrivalSpeed="7.38" duration="152.00" routeLength="345.36" waitingTime="2.00" waitingCount="1" stopTime="91.00" timeLoss="33.43" rerouteNo="0" devices="tripinfo_pt_bus_166-N:0.0 routing_pt_bus_166-N:0.0" vType="pt_bus" speedFactor="1.00" vaporized=""/>
    <tripinfo id="pt_bus_138-E:0.0" depart="30483.00" departLane="561490751#0_1" departPos="6.45" departPosLat="0.00" departSpeed="0.00" departDelay="0.00" arrival="30642.00" arrivalLane="165217839#2_1" arrivalPos="19.05" arrivalPosLat="0.00" arrivalSpeed="3.17" duration="159.00" routeLength="403.40" waitingTime="5.00" waitingCount="3" stopTime="91.00" timeLoss="36.79" rerouteNo="0" devices="tripinfo_pt_bus_138-E:0.0 routing_pt_bus_138-E:0.0" vType="pt_bus" speedFactor="1.00" vaporized=""/>
    <tripinfo id="pt_bus_35-O:0.0" depart="30583.00" departLane="1041940066#4_1" departPos="12.10" departPosLat="0.00" departSpeed="0.00" departDelay="0.00" arrival="30678.00" arrivalLane="1041940066#7_1" arrivalPos="3.73" arrivalPosLat="0.00" arrivalSpeed="1.15" duration="95.00" routeLength="163.83" waitingTime="9.00" waitingCount="2" stopTime="60.00" timeLoss="20.16" rerouteNo="0" devices="tripinfo_pt_bus_35-O:0.0 routing_pt_bus_35-O:0.0" vType="pt_bus" speedFactor="1.00" vaporized=""/>
    <tripinfo id="pt_bus_35-E:0.0" depart="30574.00" departLane="-165217829#1_1" departPos="12.10" departPosLat="0.00" departSpeed="0.00" departDelay="0.00" arrival="30736.00" arrivalLane="-1041940066#1_1" arrivalPos="78.19" arrivalPosLat="0.00" arrivalSpeed="0.80" duration="162.00" routeLength="445.89" waitingTime="6.00" waitingCount="4" stopTime="86.00" timeLoss="33.16" rerouteNo="0" devices="tripinfo_pt_bus_35-E:0.0 routing_pt_bus_35-E:0.0" vType="pt_bus" speedFactor="1.00" vaporized=""/>
    <tripinfo id="pt_bus_36-O:0.0" depart="30535.00" departLane="975251637#1_1" departPos="12.10" departPosLat="0.00" departSpeed="0.00" departDelay="0.00" arrival="30743.00" arrivalLane="329988460#1_2" arrivalPos="190.68" arrivalPosLat="0.00" arrivalSpeed="0.94" duration="208.00" routeLength="583.95" waitingTime="29.00" waitingCount="2" stopTime="92.00" timeLoss="65.72" rerouteNo="0" devices="tripinfo_pt_bus_36-O:0.0 routing_pt_bus_36-O:0.0" vType="pt_bus" speedFactor="1.00" vaporized=""/>
    <tripinfo id="pt_bus_150-O:0.0" depart="30201.00" departLane="455083984#2_1" departPos="12.10" departPosLat="0.00" departSpeed="0.00" departDelay="0.00" arrival="30759.00" arrivalLane="165217839#2_1" arrivalPos="19.05" arrivalPosLat="0.00" arrivalSpeed="0.90" duration="558.00" routeLength="1350.68" waitingTime="122.00" waitingCount="10" stopTime="254.00" timeLoss="239.83" rerouteNo="0" devices="tripinfo_pt_bus_150-O:0.0 routing_pt_bus_150-O:0.0" vType="pt_bus" speedFactor="1.00" vaporized=""/>
    <tripinfo id="pt_bus_15-O:0.0" depart="30303.00" departLane="329384217#8_1" departPos="12.10" departPosLat="0.00" departSpeed="0.00" departDelay="0.00" arrival="30806.00" arrivalLane="165217839#2_1" arrivalPos="19.05" arrivalPosLat="0.00" arrivalSpeed="0.87" duration="503.00" routeLength="1210.53" waitingTime="66.00" waitingCount="8" stopTime="223.00" timeLoss="143.39" rerouteNo="0" devices="tripinfo_pt_bus_15-O:0.0 routing_pt_bus_15-O:0.0" vType="pt_bus" speedFactor="1.00" vaporized=""/>
    <tripinfo id="pt_bus_165-N:0.1" depart="30617.00" departLane="-165217827#4_1" departPos="0.20" departPosLat="0.00" departSpeed="0.00" departDelay="0.00" arrival="30867.00" arrivalLane="4872827_1" arrivalPos="61.61" arrivalPosLat="0.00" arrivalSpeed="7.39" duration="250.00" routeLength="583.32" waitingTime="12.00" waitingCount="3" stopTime="146.00" timeLoss="55.27" rerouteNo="0" devices="tripinfo_pt_bus_165-N:0.1 routing_pt_bus_165-N:0.1" vType="pt_bus" speedFactor="1.00" vaporized=""/>
    <tripinfo id="pt_bus_144-E:0.1" depart="30732.00" departLane="329694559#0_1" departPos="8.58" departPosLat="0.00" departSpeed="0.00" departDelay="0.00" arrival="30881.00" arrivalLane="474841418#1_1" arrivalPos="93.68" arrivalPosLat="0.00" arrivalSpeed="10.80" duration="149.00" routeLength="379.57" waitingTime="1.00" waitingCount="1" stopTime="92.00" timeLoss="28.77" rerouteNo="0" devices="tripinfo_pt_bus_144-E:0.1 routing_pt_bus_144-E:0.1" vType="pt_bus" speedFactor="1.00" vaporized=""/>
    <tripinfo id="pt_bus_36-E:0.0" depart="30517.00" departLane="-329988460#3_2" departPos="12.10" departPosLat="0.00" departSpeed="0.00" departDelay="0.00" arrival="30936.00" arrivalLane="133806980#5_1" arrivalPos="40.30" arrivalPosLat="0.00" arrivalSpeed="1.08" duration="419.00" routeLength="858.59" waitingTime="127.00" waitingCount="8" stopTime="150.00" timeLoss="205.73" rerouteNo="0" devices="tripinfo_pt_bus_36-E:0.0 routing_pt_bus_36-E:0.0" vType="pt_bus" speedFactor="1.00" vaporized=""/>
    <tripinfo id="pt_bus_66-N:0.0" depart="30362.00" departLane="1051530916#0_1" departPos="7.50" departPosLat="0.00" departSpeed="0.00" departDelay="0.00" arrival="30967.00" arrivalLane="4872827_1" arrivalPos="61.61" arrivalPosLat="0.00" arrivalSpeed="6.73" duration="605.00" routeLength="1248.63" waitingTime="277.00" waitingCount="8" stopTime="130.00" timeLoss="376.09" rerouteNo="0" devices="tripinfo_pt_bus_66-N:0.0 routing_pt_bus_66-N:0.0" vType="pt_bus" speedFactor="1.00" vaporized=""/>
    <tripinfo id="pt_bus_24-E:0.1" depart="30693.00" departLane="561490751#0_1" departPos="6.45" departPosLat="0.00" departSpeed="0.00" departDelay="0.00" arrival="30978.00" arrivalLane="165217870#1_1" arrivalPos="70.06" arrivalPosLat="0.00" arrivalSpeed="0.98" duration="285.00" routeLength="759.78" waitingTime="37.00" waitingCount="5" stopTime="149.00" timeLoss="108.33" rerouteNo="0" devices="tripinfo_pt_bus_24-E:0.1 routing_pt_bus_24-E:0.1" vType="pt_bus" speedFactor="1.00" vaporized=""/>
    <tripinfo id="pt_bus_24-O:0.1" depart="30719.00" departLane="-465408860#0_1" departPos="0.20" departPosLat="0.00" departSpeed="0.00" departDelay="0.00" arrival="31016.00" arrivalLane="561490750#0_1" arrivalPos="9.94" arrivalPosLat="0.00" arrivalSpeed="0.99" duration="297.00" routeLength="759.20" waitingTime="35.00" waitingCount="5" stopTime="157.00" timeLoss="112.46" rerouteNo="0" devices="tripinfo_pt_bus_24-O:0.1 routing_pt_bus_24-O:0.1" vType="pt_bus" speedFactor="1.00" vaporized=""/>
    <tripinfo id="pt_bus_427-E:0.1" depart="30733.00" departLane="330150736#0_1" departPos="12.10" departPosLat="0.00" departSpeed="0.00" departDelay="0.00" arrival="31054.00" arrivalLane="455083970#1_1" arrivalPos="78.49" arrivalPosLat="0.00" arrivalSpeed="2.72" duration="321.00" routeLength="872.77" waitingTime="84.00" waitingCount="5" stopTime="109.00" timeLoss="158.49" rerouteNo="0" devices="tripinfo_pt_bus_427-E:0.1 routing_pt_bus_427-E:0.1" vType="pt_bus" speedFactor="1.00" vaporized=""/>
    <tripinfo id="pt_bus_57-O:0.0" depart="30326.00" departLane="111771071#3_2" departPos="12.10" departPosLat="0.00" departSpeed="0.00" departDelay="0.00" arrival="31078.00" arrivalLane="330150736#0_1" arrivalPos="75.95" arrivalPosLat="0.00" arrivalSpeed="0.81" duration="752.00" routeLength="1962.41" waitingTime="193.00" waitingCount="7" stopTime="279.00" timeLoss="271.97" rerouteNo="0" devices="tripinfo_pt_bus_57-O:0.0 routing_pt_bus_57-O:0.0" vType="pt_bus" speedFactor="1.00" vaporized=""/>
    <tripinfo id="pt_bus_15-E:0.1" depart="30853.00" departLane="394910074#0_1" departPos="12.10" departPosLat="0.00" departSpeed="0.00" departDelay="0.00" arrival="31109.00" arrivalLane="329694554#11_1" arrivalPos="70.71" arrivalPosLat="0.00" arrivalSpeed="0.70" duration="256.00" routeLength="738.78" waitingTime="11.00" waitingCount="5" stopTime="125.00" timeLoss="42.25" rerouteNo="0" devices="tripinfo_pt_bus_15-E:0.1 routing_pt_bus_15-E:0.1" vType="pt_bus" speedFactor="1.00" vaporized=""/>
    <tripinfo id="pt_bus_427-O:0.1" depart="30736.00" departLane="455083984#2_1" departPos="12.10" departPosLat="0.00" departSpeed="0.00" departDelay="0.00" arrival="31118.00" arrivalLane="330150736#0_1" arrivalPos="75.95" arrivalPosLat="0.00" arrivalSpeed="6.98" duration="382.00" routeLength="754.20" waitingTime="149.00" waitingCount="7" stopTime="102.00" timeLoss="210.21" rerouteNo="0" devices="tripinfo_pt_bus_427-O:0.1 routing_pt_bus_427-O:0.1" vType="pt_bus" speedFactor="1.00" vaporized=""/>
    <tripinfo id="pt_bus_104-O:0.1" depart="31018.00" departLane="329694558_1" departPos="12.10" departPosLat="0.00" departSpeed="0.00" departDelay="0.00" arrival="31121.00" arrivalLane="474841418#0_1" arrivalPos="86.46" arrivalPosLat="0.00" arrivalSpeed="6.83" duration="103.00" routeLength="295.37" waitingTime="0.00" waitingCount="0" stopTime="61.00" timeLoss="22.02" rerouteNo="0" devices="tripinfo_pt_bus_104-O:0.1 routing_pt_bus_104-O:0.1" vType="pt_bus" speedFactor="1.00" vaporized=""/>
    <tripinfo id="pt_bus_108-O:0.1" depart="31041.00" departLane="-329694557_1" departPos="12.10" departPosLat="0.00" departSpeed="0.00" departDelay="0.00" arrival="31139.00" arrivalLane="575547253#0_1" arrivalPos="72.19" arrivalPosLat="0.00" arrivalSpeed="3.84" duration="98.00" routeLength="186.15" waitingTime="2.00" waitingCount="2" stopTime="60.00" timeLoss="22.90" rerouteNo="0" devices="tripinfo_pt_bus_108-O:0.1 routing_pt_bus_108-O:0.1" vType="pt_bus" speedFactor="1.00" vaporized=""/>
    <tripinfo id="pt_bus_90-O:0.1" depart="30989.00" departLane="-329694557_1" departPos="12.10" departPosLat="0.00" departSpeed="0.00" departDelay="0.00" arrival="31152.00" arrivalLane="-92352263#3_1" arrivalPos="169.33" arrivalPosLat="0.00" arrivalSpeed="7.96" duration="163.00" routeLength="366.72" waitingTime="10.00" waitingCount="1" stopTime="87.00" timeLoss="36.34" rerouteNo="0" devices="tripinfo_pt_bus_90-O:0.1 routing_pt_bus_90-O:0.1" vType="pt_bus" speedFactor="1.00" vaporized=""/>
    <tripinfo id="pt_bus_150-E:0.1" depart="30804.00" departLane="394910074#0_1" departPos="12.10" departPosLat="0.00" departSpeed="0.00" departDelay="0.00" arrival="31166.00" arrivalLane="455083970#1_1" arrivalPos="78.49" arrivalPosLat="0.00" arrivalSpeed="2.76" duration="362.00" routeLength="1210.25" waitingTime="74.00" waitingCount="6" stopTime="119.00" timeLoss="182.28" rerouteNo="0" devices="tripinfo_pt_bus_150-E:0.1 routing_pt_bus_150-E:0.1" vType="pt_bus" speedFactor="1.00" vaporized=""/>
    <tripinfo id="pt_bus_66-S:0.0" depart="30353.00" departLane="48678910#0_1" departPos="12.10" departPosLat="0.00" departSpeed="0.00" departDelay="0.00" arrival="31176.00" arrivalLane="-455083993#2_1" arrivalPos="68.94" arrivalPosLat="0.00" arrivalSpeed="9.51" duration="823.00" routeLength="1564.10" waitingTime="303.00" waitingCount="12" stopTime="269.00" timeLoss="423.99" rerouteNo="0" devices="tripinfo_pt_bus_66-S:0.0 routing_pt_bus_66-S:0.0" vType="pt_bus" speedFactor="1.00" vaporized=""/>
    <tripinfo id="pt_bus_104-E:0.1" depart="31022.00" departLane="561490751#0_1" departPos="6.45" departPosLat="0.00" departSpeed="0.00" departDelay="0.00" arrival="31191.00" arrivalLane="165217839#2_1" arrivalPos="19.05" arrivalPosLat="0.00" arrivalSpeed="3.63" duration="169.00" routeLength="403.40" waitingTime="15.00" waitingCount="4" stopTime="81.00" timeLoss="56.32" rerouteNo="0" devices="tripinfo_pt_bus_104-E:0.1 routing_pt_bus_104-E:0.1" vType="pt_bus" speedFactor="1.00" vaporized=""/>
    <tripinfo id="pt_bus_138-O:0.1" depart="31084.00" departLane="329694558_1" departPos="12.10" departPosLat="0.00" departSpeed="0.00" departDelay="0.00" arrival="31198.00" arrivalLane="474841418#0_1" arrivalPos="86.46" arrivalPosLat="0.00" arrivalSpeed="6.23" duration="114.00" routeLength="295.37" waitingTime="0.00" waitingCount="0" stopTime="63.00" timeLoss="30.96" rerouteNo="0" devices="tripinfo_pt_bus_138-O:0.1 routing_pt_bus_138-O:0.1" vType="pt_bus" speedFactor="1.00" vaporized=""/>
    <tripinfo id="pt_bus_166-N:0.1" depart="31085.00" departLane="-41258974#1_1" departPos="12.10" departPosLat="0.00" departSpeed="0.00" departDelay="0.00" arrival="31238.00" arrivalLane="4872827_1" arrivalPos="61.61" arrivalPosLat="0.00" arrivalSpeed="6.65" duration="153.00" routeLength="345.36" waitingTime="2.00" waitingCount="1" stopTime="91.00" timeLoss="34.61" rerouteNo="0" devices="tripinfo_pt_bus_166-N:0.1 routing_pt_bus_166-N:0.1" vType="pt_bus" speedFactor="1.00" vaporized=""/>
    <tripinfo id="pt_bus_138-E:0.1" depart="31083.00" departLane="561490751#0_1" departPos="6.45" departPosLat="0.00" departSpeed="0.00" departDelay="0.00" arrival="31242.00" arrivalLane="165217839#2_1" arrivalPos="19.05" arrivalPosLat="0.00" arrivalSpeed="4.36" duration="159.00" routeLength="403.40" waitingTime="2.00" waitingCount="2" stopTime="90.00" timeLoss="37.28" rerouteNo="0" devices="tripinfo_pt_bus_138-E:0.1 routing_pt_bus_138-E:0.1" vType="pt_bus" speedFactor="1.00" vaporized=""/>
    <tripinfo id="pt_bus_35-O:0.1" depart="31183.00" departLane="1041940066#4_1" departPos="12.10" departPosLat="0.00" departSpeed="0.00" departDelay="0.00" arrival="31278.00" arrivalLane="1041940066#7_1" arrivalPos="3.73" arrivalPosLat="0.00" arrivalSpeed="0.99" duration="95.00" routeLength="163.83" waitingTime="12.00" waitingCount="1" stopTime="57.00" timeLoss="23.17" rerouteNo="0" devices="tripinfo_pt_bus_35-O:0.1 routing_pt_bus_35-O:0.1" vType="pt_bus" speedFactor="1.00" vaporized=""/>
    <tripinfo id="pt_bus_165-S:0.0" depart="30227.00" departLane="453745802_1" departPos="12.10" departPosLat="0.00" departSpeed="0.00" departDelay="0.00" arrival="31304.00" arrivalLane="-455083993#2_1" arrivalPos="68.94" arrivalPosLat="0.00" arrivalSpeed="0.61" duration="1077.00" routeLength="1402.72" waitingTime="608.00" waitingCount="13" stopTime="250.00" timeLoss="709.72" rerouteNo="0" devices="tripinfo_pt_bus_165-S:0.0 routing_pt_bus_165-S:0.0 person_pt_bus_165-S:0.0" vType="pt_bus" speedFactor="1.00" vaporized=""/>
    <tripinfo id="pt_bus_35-E:0.1" depart="31174.00" departLane="-165217829#1_1" departPos="12.10" departPosLat="0.00" departSpeed="0.00" departDelay="0.00" arrival="31336.00" arrivalLane="-1041940066#1_1" arrivalPos="78.19" arrivalPosLat="0.00" arrivalSpeed="0.82" duration="162.00" routeLength="445.89" waitingTime="18.00" waitingCount="4" stopTime="73.00" timeLoss="46.16" rerouteNo="0" devices="tripinfo_pt_bus_35-E:0.1 routing_pt_bus_35-E:0.1" vType="pt_bus" speedFactor="1.00" vaporized=""/>
    <tripinfo id="pt_bus_36-O:0.1" depart="31135.00" departLane="975251637#1_1" departPos="12.10" departPosLat="0.00" departSpeed="0.00" departDelay="0.00" arrival="31343.00" arrivalLane="329988460#1_2" arrivalPos="190.68" arrivalPosLat="0.00" arrivalSpeed="0.70" duration="208.00" routeLength="583.95" waitingTime="7.00" waitingCount="2" stopTime="113.00" timeLoss="44.79" rerouteNo="0" devices="tripinfo_pt_bus_36-O:0.1 routing_pt_bus_36-O:0.1" vType="pt_bus" speedFactor="1.00" vaporized=""/>
    <tripinfo id="pt_bus_150-O:0.1" depart="30801.00" departLane="455083984#2_1" departPos="12.10" departPosLat="0.00" departSpeed="0.00" departDelay="0.00" arrival="31359.00" arrivalLane="165217839#2_1" arrivalPos="19.05" arrivalPosLat="0.00" arrivalSpeed="0.86" duration="558.00" routeLength="1350.68" waitingTime="116.00" waitingCount="9" stopTime="248.00" timeLoss="246.14" rerouteNo="0" devices="tripinfo_pt_bus_150-O:0.1 routing_pt_bus_150-O:0.1" vType="pt_bus" speedFactor="1.00" vaporized=""/>
    <tripinfo id="pt_bus_15-O:0.1" depart="30903.00" departLane="329384217#8_1" departPos="12.10" departPosLat="0.00" departSpeed="0.00" departDelay="0.00" arrival="31434.00" arrivalLane="165217839#2_1" arrivalPos="19.05" arrivalPosLat="0.00" arrivalSpeed="0.77" duration="531.00" routeLength="1210.53" waitingTime="116.00" waitingCount="8" stopTime="195.00" timeLoss="200.21" rerouteNo="0" devices="tripinfo_pt_bus_15-O:0.1 routing_pt_bus_15-O:0.1" vType="pt_bus" speedFactor="1.00" vaporized=""/>
    <tripinfo id="pt_bus_165-N:0.2" depart="31217.00" departLane="-165217827#4_1" departPos="0.20" departPosLat="0.00" departSpeed="0.00" departDelay="0.00" arrival="31468.00" arrivalLane="4872827_1" arrivalPos="61.61" arrivalPosLat="0.00" arrivalSpeed="6.64" duration="251.00" routeLength="583.32" waitingTime="12.00" waitingCount="4" stopTime="148.00" timeLoss="54.02" rerouteNo="0" devices="tripinfo_pt_bus_165-N:0.2 routing_pt_bus_165-N:0.2" vType="pt_bus" speedFactor="1.00" vaporized=""/>
    <tripinfo id="pt_bus_144-E:0.2" depart="31332.00" departLane="329694559#0_1" departPos="8.58" departPosLat="0.00" departSpeed="0.00" departDelay="0.00" arrival="31481.00" arrivalLane="474841418#1_1" arrivalPos="93.68" arrivalPosLat="0.00" arrivalSpeed="10.60" duration="149.00" routeLength="379.57" waitingTime="1.00" waitingCount="1" stopTime="93.00" timeLoss="27.34" rerouteNo="0" devices="tripinfo_pt_bus_144-E:0.2 routing_pt_bus_144-E:0.2" vType="pt_bus" speedFactor="1.00" vaporized=""/>
    <tripinfo id="pt_bus_166-S:0.0" depart="30567.00" departLane="453745802_1" departPos="12.10" departPosLat="0.00" departSpeed="0.00" departDelay="0.00" arrival="31501.00" arrivalLane="-455083994#2_2" arrivalPos="226.88" arrivalPosLat="0.00" arrivalSpeed="10.77" duration="934.00" routeLength="1266.79" waitingTime="512.00" waitingCount="10" stopTime="215.00" timeLoss="612.90" rerouteNo="0" devices="tripinfo_pt_bus_166-S:0.0 routing_pt_bus_166-S:0.0" vType="pt_bus" speedFactor="1.00" vaporized=""/>
    <tripinfo id="pt_bus_36-E:0.1" depart="31117.00" departLane="-329988460#3_2" departPos="12.10" departPosLat="0.00" departSpeed="0.00" departDelay="0.00" arrival="31510.00" arrivalLane="133806980#5_1" arrivalPos="40.30" arrivalPosLat="0.00" arrivalSpeed="0.99" duration="393.00" routeLength="858.59" waitingTime="95.00" waitingCount="6" stopTime="160.00" timeLoss="169.73" rerouteNo="0" devices="tripinfo_pt_bus_36-E:0.1 routing_pt_bus_36-E:0.1" vType="pt_bus" speedFactor="1.00" vaporized=""/>
    <tripinfo id="pt_bus_57-E:0.0" depart="30321.00" departLane="330150435#0_1" departPos="0.20" departPosLat="0.00" departSpeed="0.00" departDelay="0.00" arrival="31558.00" arrivalLane="111771071#3_2" arrivalPos="98.10" arrivalPosLat="0.00" arrivalSpeed="7.83" duration="1237.00" routeLength="3431.79" waitingTime="329.00" waitingCount="16" stopTime="397.00" timeLoss="490.68" rerouteNo="0" devices="tripinfo_pt_bus_57-E:0.0 routing_pt_bus_57-E:0.0" vType="pt_bus" speedFactor="1.00" vaporized=""/>
    <tripinfo id="pt_bus_66-N:0.1" depart="30962.00" departLane="1051530916#0_1" departPos="7.50" departPosLat="0.00" departSpeed="0.00" departDelay="0.00" arrival="31565.00" arrivalLane="4872827_1" arrivalPos="61.61" arrivalPosLat="0.00" arrivalSpeed="7.24" duration="603.00" routeLength="1248.63" waitingTime="277.00" waitingCount="9" stopTime="130.00" timeLoss="374.76" rerouteNo="0" devices="tripinfo_pt_bus_66-N:0.1 routing_pt_bus_66-N:0.1" vType="pt_bus" speedFactor="1.00" vaporized=""/>