<?xml version="1.0" encoding="UTF-8"?>

<!-- generated on 2022-09-25 14:50:39 by Eclipse SUMO GUI Version 1.14.1
<configuration xmlns:xsi="http://www.w3.org/2001/XMLSchema-instance" xsi:noNamespaceSchemaLocation="http://sumo.dlr.de/xsd/sumoConfiguration.xsd">

    <input>
        <net-file value="C:\Dev\vsp-sumo\scenario\osm.net.xml"/>
        <route-files value="C:\Dev\vsp-sumo\scenario\osm_activitygen.merged.rou.xml,C:\Dev\vsp-sumo\scenario\osm_pt.rou.xml"/>
        <additional-files value="C:\Dev\vsp-sumo\scenario\osm_polygons.add.xml,C:\Dev\vsp-sumo\scenario\basic.vType.xml,C:\Dev\vsp-sumo\scenario\osm_stops.add.xml,C:\Dev\vsp-sumo\scenario\osm_complete_parking_areas.add.xml,C:\Dev\vsp-sumo\scenario\osm_parking_rerouters.add.xml,C:\Dev\vsp-sumo\scenario\osm_taxi_stands.add.xml,C:\Dev\vsp-sumo\scenario\osm_taxi_rerouters.add.xml"/>
    </input>

    <output>
        <output-prefix value="output."/>
        <summary-output value="C:\Dev\vsp-sumo\scenario\summary.xml"/>
        <person-summary-output value="C:\Dev\vsp-sumo\scenario\person.summary.xml"/>
        <tripinfo-output value="C:\Dev\vsp-sumo\scenario\tripinfo.xml"/>
        <tripinfo-output.write-unfinished value="false"/>
        <statistic-output value="C:\Dev\vsp-sumo\scenario\statistics.xml"/>
    </output>

    <time>
        <begin value="30000"/>
        <end value="40000"/>
        <step-length value="1"/>
    </time>

    <processing>
        <lateral-resolution value="0.8"/>
        <ignore-junction-blocker value="60"/>
        <ignore-route-errors value="true"/>
        <collision.action value="teleport"/>
        <time-to-teleport value="300"/>
        <max-depart-delay value="900"/>
        <time-to-impatience value="120"/>
        <parking.maneuver value="true"/>
        <pedestrian.model value="striping"/>
        <pedestrian.striping.stripe-width value="0.55"/>
        <pedestrian.striping.dawdling value="0.2"/>
        <pedestrian.striping.jamtime value="60"/>
        <pedestrian.striping.jamtime.crossing value="10"/>
        <pedestrian.striping.reserve-oncoming value="0.25"/>
        <pedestrian.striping.reserve-oncoming.junctions value="0.34"/>
        <ride.stop-tolerance value="25"/>
    </processing>

    <routing>
        <routing-algorithm value="astar"/>
        <persontrip.walkfactor value="0.75"/>
        <persontrip.transfer.car-walk value="parkingAreas,allJunctions"/>
        <persontrip.transfer.taxi-walk value="parkingAreas,allJunctions"/>
        <persontrip.transfer.walk-taxi value="parkingAreas,allJunctions"/>
        <persontrip.taxi.waiting-time value="300"/>
        <device.rerouting.probability value="1"/>
        <device.rerouting.period value="300"/>
        <device.rerouting.pre-period value="300"/>
        <device.rerouting.bike-speeds value="true"/>
        <person-device.rerouting.probability value="1"/>
        <person-device.rerouting.period value="300"/>
    </routing>

    <report>
        <verbose value="true"/>
        <no-warnings value="false"/>
        <error-log value="errors.txt"/>
        <duration-log.disable value="false"/>
        <duration-log.statistics value="true"/>
        <no-step-log value="false"/>
    </report>

    <taxi_device>
        <device.taxi.dispatch-algorithm value="greedy"/>
        <device.taxi.dispatch-algorithm.output value="C:\Dev\vsp-sumo\scenario\taxi.dispatch.xml"/>
        <device.taxi.dispatch-period value="60"/>
        <device.taxi.idle-algorithm value="stop"/>
        <device.taxi.idle-algorithm.output value="C:\Dev\vsp-sumo\scenario\taxi.idle.xml"/>
    </taxi_device>

    <traci_server>
        <remote-port value="8883"/>
    </traci_server>

    <random_number>
        <seed value="42"/>
    </random_number>

    <gui_only>
        <gui-settings-file value="C:\Dev\vsp-sumo\scenario\default-gui.xml"/>
        <start value="true"/>
        <delay value="0"/>
    </gui_only>

</configuration>
-->

<tripinfos xmlns:xsi="http://www.w3.org/2001/XMLSchema-instance" xsi:noNamespaceSchemaLocation="http://sumo.dlr.de/xsd/tripinfo_file.xsd">
    <tripinfo id="pt_bus_144-O:0.0" depart="30098.00" departLane="465159973_1" departPos="12.10" departPosLat="0.00" departSpeed="0.00" departDelay="0.00" arrival="30228.00" arrivalLane="165217772#1_1" arrivalPos="46.44" arrivalPosLat="0.00" arrivalSpeed="1.00" duration="130.00" routeLength="334.22" waitingTime="21.00" waitingCount="2" stopTime="61.00" timeLoss="54.89" rerouteNo="0" devices="tripinfo_pt_bus_144-O:0.0 routing_pt_bus_144-O:0.0" vType="pt_bus" speedFactor="1.00" vaporized=""/>
    <tripinfo id="pt_bus_57-O:0.0" depart="30166.00" departLane="-1042470293#2_1" departPos="7.50" departPosLat="0.00" departSpeed="0.00" departDelay="0.00" arrival="30270.00" arrivalLane="-20113825#0_1" arrivalPos="19.26" arrivalPosLat="0.00" arrivalSpeed="0.98" duration="104.00" routeLength="275.16" waitingTime="1.00" waitingCount="1" stopTime="60.00" timeLoss="10.81" rerouteNo="0" devices="tripinfo_pt_bus_57-O:0.0 routing_pt_bus_57-O:0.0" vType="pt_bus" speedFactor="1.00" vaporized=""/>
    <tripinfo id="sv_1#1" depart="30100.00" departLane="48678911#1_1" departPos="5.10" departPosLat="0.00" departSpeed="0.00" departDelay="0.00" arrival="30328.00" arrivalLane="1051822951#7_4" arrivalPos="58.43" arrivalPosLat="0.00" arrivalSpeed="10.72" duration="228.00" routeLength="1638.14" waitingTime="46.00" waitingCount="3" stopTime="0.00" timeLoss="74.61" rerouteNo="1" devices="tripinfo_sv_1#1 routing_sv_1#1" vType="passenger1" speedFactor="0.98" vaporized=""/>
    <tripinfo id="pt_bus_24-E:0.0" depart="30060.00" departLane="561490751#0_1" departPos="6.45" departPosLat="0.00" departSpeed="0.00" departDelay="0.00" arrival="30336.00" arrivalLane="165217870#1_1" arrivalPos="70.06" arrivalPosLat="0.00" arrivalSpeed="0.62" duration="276.00" routeLength="759.78" waitingTime="28.00" waitingCount="5" stopTime="149.00" timeLoss="99.63" rerouteNo="0" devices="tripinfo_pt_bus_24-E:0.0 routing_pt_bus_24-E:0.0" vType="pt_bus" speedFactor="1.00" vaporized=""/>
    <tripinfo id="pt_bus_165-N:0.0" depart="30027.00" departLane="-165217827#4_1" departPos="0.20" departPosLat="0.00" departSpeed="0.00" departDelay="0.00" arrival="30343.00" arrivalLane="727849147#0_1" arrivalPos="52.79" arrivalPosLat="0.00" arrivalSpeed="4.00" duration="316.00" routeLength="769.50" waitingTime="30.00" waitingCount="4" stopTime="167.00" timeLoss="93.50" rerouteNo="0" devices="tripinfo_pt_bus_165-N:0.0 routing_pt_bus_165-N:0.0" vType="pt_bus" speedFactor="1.00" vaporized=""/>
    <tripinfo id="pt_bus_15-E:0.0" depart="30139.00" departLane="394910074#0_1" departPos="12.10" departPosLat="0.00" departSpeed="0.00" departDelay="0.00" arrival="30380.00" arrivalLane="329694554#11_1" arrivalPos="70.71" arrivalPosLat="0.00" arrivalSpeed="0.88" duration="241.00" routeLength="738.78" waitingTime="2.00" waitingCount="2" stopTime="123.00" timeLoss="29.23" rerouteNo="0" devices="tripinfo_pt_bus_15-E:0.0 routing_pt_bus_15-E:0.0" vType="pt_bus" speedFactor="1.00" vaporized=""/>
    <tripinfo id="pt_bus_427-O:0.0" depart="30125.00" departLane="455083984#2_1" departPos="12.10" departPosLat="0.00" departSpeed="0.00" departDelay="0.00" arrival="30393.00" arrivalLane="330150736#0_1" arrivalPos="75.95" arrivalPosLat="0.00" arrivalSpeed="7.76" duration="268.00" routeLength="753.27" waitingTime="30.00" waitingCount="4" stopTime="109.00" timeLoss="88.91" rerouteNo="0" devices="tripinfo_pt_bus_427-O:0.0 routing_pt_bus_427-O:0.0" vType="pt_bus" speedFactor="1.00" vaporized=""/>
    <tripinfo id="pt_bus_144-E:0.0" depart="30102.00" departLane="329694559#0_1" departPos="8.58" departPosLat="0.00" departSpeed="0.00" departDelay="0.00" arrival="30398.00" arrivalLane="143920959#0_1" arrivalPos="47.43" arrivalPosLat="0.00" arrivalSpeed="0.64" duration="296.00" routeLength="921.17" waitingTime="24.00" waitingCount="4" stopTime="147.00" timeLoss="100.73" rerouteNo="0" devices="tripinfo_pt_bus_144-E:0.0 routing_pt_bus_144-E:0.0" vType="pt_bus" speedFactor="1.00" vaporized=""/>
    <tripinfo id="pt_bus_427-E:0.0" depart="30119.00" departLane="330150736#0_1" departPos="12.10" departPosLat="0.00" departSpeed="0.00" departDelay="0.00" arrival="30438.00" arrivalLane="455083970#1_1" arrivalPos="78.49" arrivalPosLat="0.00" arrivalSpeed="2.54" duration="319.00" routeLength="872.13" waitingTime="82.00" waitingCount="6" stopTime="104.00" timeLoss="161.67" rerouteNo="0" devices="tripinfo_pt_bus_427-E:0.0 routing_pt_bus_427-E:0.0" vType="pt_bus" speedFactor="1.00" vaporized=""/>
    <tripinfo id="pt_bus_75-N:0.0" depart="30331.00" departLane="456353760#1_1" departPos="12.10" departPosLat="0.00" departSpeed="0.00" departDelay="0.00" arrival="30465.00" arrivalLane="37722302#1_1" arrivalPos="175.68" arrivalPosLat="0.00" arrivalSpeed="0.61" duration="134.00" routeLength="315.73" waitingTime="4.00" waitingCount="1" stopTime="82.00" timeLoss="17.81" rerouteNo="0" devices="tripinfo_pt_bus_75-N:0.0 routing_pt_bus_75-N:0.0" vType="pt_bus" speedFactor="1.00" vaporized=""/>
    <tripinfo id="pt_bus_24-O:0.0" depart="30093.00" departLane="-465408860#0_1" departPos="0.20" departPosLat="0.00" departSpeed="0.00" departDelay="0.00" arrival="30473.00" arrivalLane="-329067231#5_1" arrivalPos="103.56" arrivalPosLat="0.00" arrivalSpeed="8.84" duration="380.00" routeLength="907.17" waitingTime="54.00" waitingCount="6" stopTime="196.00" timeLoss="144.63" rerouteNo="0" devices="tripinfo_pt_bus_24-O:0.0 routing_pt_bus_24-O:0.0" vType="pt_bus" speedFactor="1.00" vaporized=""/>
    <tripinfo id="pt_bus_747-E:0.0" depart="30015.00" departLane="792160913#1_1" departPos="12.10" departPosLat="0.00" departSpeed="0.00" departDelay="0.00" arrival="30484.00" arrivalLane="-41258976#2_2" arrivalPos="52.00" arrivalPosLat="0.00" arrivalSpeed="0.98" duration="469.00" routeLength="2263.08" waitingTime="153.00" waitingCount="8" stopTime="51.00" timeLoss="278.65" rerouteNo="0" devices="tripinfo_pt_bus_747-E:0.0 routing_pt_bus_747-E:0.0" vType="pt_bus" speedFactor="1.00" vaporized=""/>
    <tripinfo id="pt_bus_150-E:0.0" depart="30133.00" departLane="394910074#0_1" departPos="12.10" departPosLat="0.00" departSpeed="0.00" departDelay="0.00" arrival="30498.00" arrivalLane="455083970#1_1" arrivalPos="78.49" arrivalPosLat="0.00" arrivalSpeed="2.32" duration="365.00" routeLength="1209.61" waitingTime="34.00" waitingCount="5" stopTime="160.00" timeLoss="145.30" rerouteNo="0" devices="tripinfo_pt_bus_150-E:0.0 routing_pt_bus_150-E:0.0" vType="pt_bus" speedFactor="1.00" vaporized=""/>
    <tripinfo id="pt_bus_104-O:0.0" depart="30381.00" departLane="329694558_1" departPos="12.10" departPosLat="0.00" departSpeed="0.00" departDelay="0.00" arrival="30556.00" arrivalLane="-329067231#5_1" arrivalPos="103.56" arrivalPosLat="0.00" arrivalSpeed="9.05" duration="175.00" routeLength="551.65" waitingTime="1.00" waitingCount="1" stopTime="89.00" timeLoss="43.74" rerouteNo="0" devices="tripinfo_pt_bus_104-O:0.0 routing_pt_bus_104-O:0.0" vType="pt_bus" speedFactor="1.00" vaporized=""/>
    <tripinfo id="pt_bus_104-E:0.0" depart="30383.00" departLane="561490751#0_1" departPos="6.45" departPosLat="0.00" departSpeed="0.00" departDelay="0.00" arrival="30563.00" arrivalLane="165217839#2_1" arrivalPos="19.05" arrivalPosLat="0.00" arrivalSpeed="4.27" duration="180.00" routeLength="403.40" waitingTime="23.00" waitingCount="4" stopTime="84.00" timeLoss="64.18" rerouteNo="0" devices="tripinfo_pt_bus_104-E:0.0 routing_pt_bus_104-E:0.0" vType="pt_bus" speedFactor="1.00" vaporized=""/>
    <tripinfo id="pt_bus_138-E:0.0" depart="30419.00" departLane="561490751#0_1" departPos="6.45" departPosLat="0.00" departSpeed="0.00" departDelay="0.00" arrival="30602.00" arrivalLane="165217839#2_1" arrivalPos="19.05" arrivalPosLat="0.00" arrivalSpeed="4.25" duration="183.00" routeLength="403.40" waitingTime="24.00" waitingCount="3" stopTime="88.00" timeLoss="62.85" rerouteNo="0" devices="tripinfo_pt_bus_138-E:0.0 routing_pt_bus_138-E:0.0" vType="pt_bus" speedFactor="1.00" vaporized=""/>
    <tripinfo id="pt_bus_138-O:0.0" depart="30425.00" departLane="329694558_1" departPos="12.10" departPosLat="0.00" departSpeed="0.00" departDelay="5.00" arrival="30613.00" arrivalLane="-329067231#5_1" arrivalPos="103.56" arrivalPosLat="0.00" arrivalSpeed="9.52" duration="188.00" routeLength="551.65" waitingTime="22.00" waitingCount="3" stopTime="65.00" timeLoss="81.04" rerouteNo="0" devices="tripinfo_pt_bus_138-O:0.0 routing_pt_bus_138-O:0.0" vType="pt_bus" speedFactor="1.00" vaporized=""/>
    <tripinfo id="pt_bus_90-E:0.0" depart="30371.00" departLane="165217874_1" departPos="12.10" departPosLat="0.00" departSpeed="0.00" departDelay="0.00" arrival="30615.00" arrivalLane="92352263#2_1" arrivalPos="169.33" arrivalPosLat="0.00" arrivalSpeed="1.17" duration="244.00" routeLength="598.21" waitingTime="30.00" waitingCount="2" stopTime="115.00" timeLoss="62.88" rerouteNo="0" devices="tripinfo_pt_bus_90-E:0.0 routing_pt_bus_90-E:0.0" vType="pt_bus" speedFactor="1.00" vaporized=""/>
    <tripinfo id="pt_bus_166-N:0.0" depart="30422.00" departLane="-41258974#1_1" departPos="12.10" departPosLat="0.00" departSpeed="0.00" departDelay="0.00" arrival="30629.00" arrivalLane="727849147#0_1" arrivalPos="52.79" arrivalPosLat="0.00" arrivalSpeed="4.05" duration="207.00" routeLength="531.54" waitingTime="12.00" waitingCount="2" stopTime="119.00" timeLoss="54.00" rerouteNo="0" devices="tripinfo_pt_bus_166-N:0.0 routing_pt_bus_166-N:0.0" vType="pt_bus" speedFactor="1.00" vaporized=""/>
    <tripinfo id="pt_bus_108-O:0.0" depart="30389.00" departLane="-329694557_1" departPos="12.10" departPosLat="0.00" departSpeed="0.00" departDelay="0.00" arrival="30650.00" arrivalLane="463671314#1_1" arrivalPos="145.35" arrivalPosLat="0.00" arrivalSpeed="3.16" duration="261.00" routeLength="739.57" waitingTime="2.00" waitingCount="2" stopTime="158.00" timeLoss="39.11" rerouteNo="0" devices="tripinfo_pt_bus_108-O:0.0 routing_pt_bus_108-O:0.0" vType="pt_bus" speedFactor="1.00" vaporized=""/>
    <tripinfo id="pt_bus_90-O:0.0" depart="30365.00" departLane="-329694557_1" departPos="12.10" departPosLat="0.00" departSpeed="0.00" departDelay="0.00" arrival="30656.00" arrivalLane="-92352264_1" arrivalPos="130.20" arrivalPosLat="0.00" arrivalSpeed="0.86" duration="291.00" routeLength="610.66" waitingTime="10.00" waitingCount="1" stopTime="175.00" timeLoss="47.41" rerouteNo="0" devices="tripinfo_pt_bus_90-O:0.0 routing_pt_bus_90-O:0.0" vType="pt_bus" speedFactor="1.00" vaporized=""/>
    <tripinfo id="pt_bus_150-O:0.0" depart="30132.00" departLane="455083984#2_1" departPos="12.10" departPosLat="0.00" departSpeed="0.00" departDelay="0.00" arrival="30675.00" arrivalLane="165217839#2_1" arrivalPos="19.05" arrivalPosLat="0.00" arrivalSpeed="1.03" duration="543.00" routeLength="1350.68" waitingTime="96.00" waitingCount="8" stopTime="248.00" timeLoss="231.09" rerouteNo="0" devices="tripinfo_pt_bus_150-O:0.0 routing_pt_bus_150-O:0.0" vType="pt_bus" speedFactor="1.00" vaporized=""/>
    <tripinfo id="pt_bus_107-N:0.0" depart="30055.00" departLane="1042470293#0_1" departPos="12.10" departPosLat="0.00" departSpeed="0.00" departDelay="0.00" arrival="30693.00" arrivalLane="37722302#1_1" arrivalPos="175.68" arrivalPosLat="-0.25" arrivalSpeed="0.75" duration="638.00" routeLength="1855.88" waitingTime="61.00" waitingCount="6" stopTime="303.00" timeLoss="155.41" rerouteNo="0" devices="tripinfo_pt_bus_107-N:0.0 routing_pt_bus_107-N:0.0" vType="pt_bus" speedFactor="1.00" vaporized=""/>
    <tripinfo id="pt_bus_107-S:0.0" depart="30058.00" departLane="-354710422#0_1" departPos="12.10" departPosLat="0.00" departSpeed="0.00" departDelay="0.00" arrival="30702.00" arrivalLane="-1042470293#0_1" arrivalPos="94.54" arrivalPosLat="0.00" arrivalSpeed="1.09" duration="644.00" routeLength="1921.38" waitingTime="195.00" waitingCount="9" stopTime="182.00" timeLoss="274.18" rerouteNo="0" devices="tripinfo_pt_bus_107-S:0.0 routing_pt_bus_107-S:0.0" vType="pt_bus" speedFactor="1.00" vaporized=""/>
    <tripinfo id="pt_bus_15-O:0.0" depart="30160.00" departLane="329384217#8_1" departPos="12.10" departPosLat="0.00" departSpeed="0.00" departDelay="0.00" arrival="30702.00" arrivalLane="165217839#2_1" arrivalPos="19.05" arrivalPosLat="0.00" arrivalSpeed="0.93" duration="542.00" routeLength="1210.53" waitingTime="170.00" waitingCount="9" stopTime="155.00" timeLoss="251.40" rerouteNo="0" devices="tripinfo_pt_bus_15-O:0.0 routing_pt_bus_15-O:0.0" vType="pt_bus" speedFactor="1.00" vaporized=""/>
    <tripinfo id="pt_bus_108-E:0.0" depart="30388.00" departLane="509777703#0_1" departPos="12.10" departPosLat="0.00" departSpeed="0.00" departDelay="0.00" arrival="30714.00" arrivalLane="329694559#3_1" arrivalPos="18.90" arrivalPosLat="0.00" arrivalSpeed="0.80" duration="326.00" routeLength="794.98" waitingTime="103.00" waitingCount="3" stopTime="114.00" timeLoss="166.91" rerouteNo="0" devices="tripinfo_pt_bus_108-E:0.0 routing_pt_bus_108-E:0.0" vType="pt_bus" speedFactor="1.00" vaporized=""/>
    <tripinfo id="pt_bus_66-N:0.0" depart="30227.00" departLane="1051530916#0_1" departPos="7.50" departPosLat="0.00" departSpeed="0.00" departDelay="0.00" arrival="30776.00" arrivalLane="727849147#0_1" arrivalPos="52.79" arrivalPosLat="0.00" arrivalSpeed="4.03" duration="549.00" routeLength="1432.57" waitingTime="112.00" waitingCount="7" stopTime="228.00" timeLoss="216.80" rerouteNo="0" devices="tripinfo_pt_bus_66-N:0.0 routing_pt_bus_66-N:0.0" vType="pt_bus" speedFactor="1.00" vaporized=""/>
    <tripinfo id="pt_bus_66-S:0.0" depart="30222.00" departLane="48678910#0_1" departPos="12.10" departPosLat="0.00" departSpeed="0.00" departDelay="0.00" arrival="30806.00" arrivalLane="-455083993#2_1" arrivalPos="68.94" arrivalPosLat="0.00" arrivalSpeed="9.65" duration="584.00" routeLength="1561.86" waitingTime="86.00" waitingCount="8" stopTime="263.00" timeLoss="191.43" rerouteNo="0" devices="tripinfo_pt_bus_66-S:0.0 routing_pt_bus_66-S:0.0" vType="pt_bus" speedFactor="1.00" vaporized=""/>
    <tripinfo id="pt_bus_144-O:0.1" depart="30698.00" departLane="465159973_1" departPos="12.10" departPosLat="0.00" departSpeed="0.00" departDelay="0.00" arrival="30828.00" arrivalLane="165217772#1_1" arrivalPos="46.44" arrivalPosLat="0.00" arrivalSpeed="1.05" duration="130.00" routeLength="334.22" waitingTime="21.00" waitingCount="2" stopTime="62.00" timeLoss="54.02" rerouteNo="0" devices="tripinfo_pt_bus_144-O:0.1 routing_pt_bus_144-O:0.1" vType="pt_bus" speedFactor="1.00" vaporized=""/>
    <tripinfo id="pt_bus_57-O:0.1" depart="30766.00" departLane="-1042470293#2_1" departPos="7.50" departPosLat="0.00" departSpeed="0.00" departDelay="0.00" arrival="30870.00" arrivalLane="-20113825#0_1" arrivalPos="19.26" arrivalPosLat="0.00" arrivalSpeed="0.83" duration="104.00" routeLength="275.16" waitingTime="0.00" waitingCount="0" stopTime="62.00" timeLoss="8.83" rerouteNo="0" devices="tripinfo_pt_bus_57-O:0.1 routing_pt_bus_57-O:0.1" vType="pt_bus" speedFactor="1.00" vaporized=""/>
    <tripinfo id="pt_bus_74-N:0.0" depart="30326.00" departLane="37722304_1" departPos="12.10" departPosLat="0.00" departSpeed="0.00" departDelay="0.00" arrival="30894.00" arrivalLane="37722302#1_1" arrivalPos="175.68" arrivalPosLat="0.00" arrivalSpeed="1.16" duration="568.00" routeLength="1348.91" waitingTime="184.00" waitingCount="10" stopTime="168.00" timeLoss="273.53" rerouteNo="0" devices="tripinfo_pt_bus_74-N:0.0 routing_pt_bus_74-N:0.0" vType="pt_bus" speedFactor="1.00" vaporized=""/>
    <tripinfo id="pt_bus_36-O:0.0" depart="30497.00" departLane="975251637#1_1" departPos="12.10" departPosLat="0.00" departSpeed="0.00" departDelay="0.00" arrival="30923.00" arrivalLane="545490137#1_1" arrivalPos="123.44" arrivalPosLat="0.00" arrivalSpeed="0.92" duration="426.00" routeLength="1449.20" waitingTime="79.00" waitingCount="5" stopTime="131.00" timeLoss="142.00" rerouteNo="0" devices="tripinfo_pt_bus_36-O:0.0 routing_pt_bus_36-O:0.0" vType="pt_bus" speedFactor="1.00" vaporized=""/>
    <tripinfo id="pt_bus_165-S:0.0" depart="30136.00" departLane="453745802_1" departPos="12.10" departPosLat="0.00" departSpeed="0.00" departDelay="0.00" arrival="30934.00" arrivalLane="-455083993#2_1" arrivalPos="68.94" arrivalPosLat="0.00" arrivalSpeed="0.60" duration="798.00" routeLength="1400.48" waitingTime="340.00" waitingCount="8" stopTime="254.00" timeLoss="427.48" rerouteNo="0" devices="tripinfo_pt_bus_165-S:0.0 routing_pt_bus_165-S:0.0" vType="pt_bus" speedFactor="1.00" vaporized=""/>
    <tripinfo id="pt_bus_24-E:0.1" depart="30660.00" departLane="561490751#0_1" departPos="6.45" departPosLat="0.00" departSpeed="0.00" departDelay="0.00" arrival="30936.00" arrivalLane="165217870#1_1" arrivalPos="70.06" arrivalPosLat="0.00" arrivalSpeed="1.14" duration="276.00" routeLength="759.78" waitingTime="28.00" waitingCount="5" stopTime="150.00" timeLoss="98.61" rerouteNo="0" devices="tripinfo_pt_bus_24-E:0.1 routing_pt_bus_24-E:0.1" vType="pt_bus" speedFactor="1.00" vaporized=""/>
    <tripinfo id="pt_bus_165-N:0.1" depart="30627.00" departLane="-165217827#4_1" departPos="0.20" departPosLat="0.00" departSpeed="0.00" departDelay="0.00" arrival="30943.00" arrivalLane="727849147#0_1" arrivalPos="52.79" arrivalPosLat="0.00" arrivalSpeed="3.80" duration="316.00" routeLength="769.50" waitingTime="79.00" waitingCount="4" stopTime="129.00" timeLoss="131.47" rerouteNo="0" devices="tripinfo_pt_bus_165-N:0.1 routing_pt_bus_165-N:0.1" vType="pt_bus" speedFactor="1.00" vaporized=""/>
    <tripinfo id="pt_bus_15-E:0.1" depart="30739.00" departLane="394910074#0_1" departPos="12.10" departPosLat="0.00" departSpeed="0.00" departDelay="0.00" arrival="30980.00" arrivalLane="329694554#11_1" arrivalPos="70.71" arrivalPosLat="0.00" arrivalSpeed="0.74" duration="241.00" routeLength="738.78" waitingTime="2.00" waitingCount="2" stopTime="122.00" timeLoss="30.25" rerouteNo="0" devices="tripinfo_pt_bus_15-E:0.1 routing_pt_bus_15-E:0.1" vType="pt_bus" speedFactor="1.00" vaporized=""/>
    <tripinfo id="pt_bus_427-O:0.1" depart="30725.00" departLane="455083984#2_1" departPos="12.10" departPosLat="0.00" departSpeed="0.00" departDelay="0.00" arrival="30990.00" arrivalLane="330150736#0_1" arrivalPos="75.95" arrivalPosLat="0.00" arrivalSpeed="7.22" duration="265.00" routeLength="753.27" waitingTime="26.00" waitingCount="4" stopTime="112.00" timeLoss="83.54" rerouteNo="0" devices="tripinfo_pt_bus_427-O:0.1 routing_pt_bus_427-O:0.1" vType="pt_bus" speedFactor="1.00" vaporized=""/>
    <tripinfo id="pt_bus_144-E:0.1" depart="30702.00" departLane="329694559#0_1" departPos="8.58" departPosLat="0.00" departSpeed="0.00" departDelay="0.00" arrival="30998.00" arrivalLane="143920959#0_1" arrivalPos="47.43" arrivalPosLat="0.00" arrivalSpeed="0.61" duration="296.00" routeLength="921.17" waitingTime="6.00" waitingCount="3" stopTime="174.00" timeLoss="73.64" rerouteNo="0" devices="tripinfo_pt_bus_144-E:0.1 routing_pt_bus_144-E:0.1" vType="pt_bus" speedFactor="1.00" vaporized=""/>
    <tripinfo id="pt_bus_747-E:0.1" depart="30615.00" departLane="792160913#1_1" departPos="12.10" departPosLat="0.00" departSpeed="0.00" departDelay="0.00" arrival="31036.00" arrivalLane="-41258976#2_2" arrivalPos="52.00" arrivalPosLat="0.00" arrivalSpeed="0.64" duration="421.00" routeLength="2263.78" waitingTime="100.00" waitingCount="8" stopTime="52.00" timeLoss="230.16" rerouteNo="0" devices="tripinfo_pt_bus_747-E:0.1 routing_pt_bus_747-E:0.1" vType="pt_bus" speedFactor="1.00" vaporized=""/>
    <tripinfo id="pt_bus_427-E:0.1" depart="30719.00" departLane="330150736#0_1" departPos="12.10" departPosLat="0.00" departSpeed="0.00" departDelay="0.00" arrival="31040.00" arrivalLane="455083970#1_1" arrivalPos="78.49" arrivalPosLat="0.00" arrivalSpeed="2.27" duration="321.00" routeLength="872.13" waitingTime="98.00" waitingCount="5" stopTime="90.00" timeLoss="177.79" rerouteNo="0" devices="tripinfo_pt_bus_427-E:0.1 routing_pt_bus_427-E:0.1" vType="pt_bus" speedFactor="1.00" vaporized=""/>
    <tripinfo id="pt_bus_36-E:0.0" depart="30485.00" departLane="-545490137#1_1" departPos="12.10" departPosLat="0.00" departSpeed="0.00" departDelay="0.00" arrival="31063.00" arrivalLane="133806980#5_1" arrivalPos="40.30" arrivalPosLat="0.00" arrivalSpeed="0.98" duration="578.00" routeLength="1684.28" waitingTime="49.00" waitingCount="6" stopTime="279.00" timeLoss="137.50" rerouteNo="0" devices="tripinfo_pt_bus_36-E:0.0 routing_pt_bus_36-E:0.0" vType="pt_bus" speedFactor="1.00" vaporized=""/>
    <tripinfo id="pt_bus_75-N:0.1" depart="30931.00" departLane="456353760#1_1" departPos="12.10" departPosLat="0.00" departSpeed="0.00" departDelay="0.00" arrival="31065.00" arrivalLane="37722302#1_1" arrivalPos="175.68" arrivalPosLat="0.00" arrivalSpeed="1.10" duration="134.00" routeLength="315.73" waitingTime="30.00" waitingCount="1" stopTime="54.00" timeLoss="45.82" rerouteNo="0" devices="tripinfo_pt_bus_75-N:0.1 routing_pt_bus_75-N:0.1" vType="pt_bus" speedFactor="1.00" vaporized=""/>
    <tripinfo id="pt_bus_24-O:0.1" depart="30693.00" departLane="-465408860#0_1" departPos="0.20" departPosLat="0.00" departSpeed="0.00" departDelay="0.00" arrival="31072.00" arrivalLane="-329067231#5_1" arrivalPos="103.56" arrivalPosLat="0.00" arrivalSpeed="8.45" duration="379.00" routeLength="907.17" waitingTime="36.00" waitingCount="7" stopTime="216.00" timeLoss="123.84" rerouteNo="0" devices="tripinfo_pt_bus_24-O:0.1 routing_pt_bus_24-O:0.1" vType="pt_bus" speedFactor="1.00" vaporized=""/>
    <tripinfo id="pt_bus_150-E:0.1" depart="30733.00" departLane="394910074#0_1" departPos="12.10" departPosLat="0.00" departSpeed="0.00" departDelay="0.00" arrival="31099.00" arrivalLane="455083970#1_1" arrivalPos="78.49" arrivalPosLat="0.00" arrivalSpeed="2.84" duration="366.00" routeLength="1209.61" waitingTime="22.00" waitingCount="5" stopTime="171.00" timeLoss="134.92" rerouteNo="0" devices="tripinfo_pt_bus_150-E:0.1 routing_pt_bus_150-E:0.1" vType="pt_bus" speedFactor="1.00" vaporized=""/>
    <tripinfo id="pt_bus_61-E:0.0" depart="30201.00" departLane="122076249_1" departPos="12.10" departPosLat="0.00" departSpeed="0.00" departDelay="0.00" arrival="31125.00" arrivalLane="360802894#1_1" arrivalPos="66.27" arrivalPosLat="0.00" arrivalSpeed="5.07" duration="924.00" routeLength="1408.28" waitingTime="522.00" waitingCount="12" stopTime="167.00" timeLoss="633.15" rerouteNo="0" devices="tripinfo_pt_bus_61-E:0.0 routing_pt_bus_61-E:0.0" vType="pt_bus" speedFactor="1.00" vaporized=""/>
    <tripinfo id="pt_bus_104-E:0.1" depart="30983.00" departLane="561490751#0_1" departPos="6.45" departPosLat="0.00" departSpeed="0.00" departDelay="0.00" arrival="31162.00" arrivalLane="165217839#2_1" arrivalPos="19.05" arrivalPosLat="0.00" arrivalSpeed="3.76" duration="179.00" routeLength="403.40" waitingTime="2.00" waitingCount="2" stopTime="119.00" timeLoss="28.14" rerouteNo="0" devices="tripinfo_pt_bus_104-E:0.1 routing_pt_bus_104-E:0.1" vType="pt_bus" speedFactor="1.00" vaporized=""/>
    <tripinfo id="pt_bus_104-O:0.1" depart="30981.00" departLane="329694558_1" departPos="12.10" departPosLat="0.00" departSpeed="0.00" departDelay="0.00" arrival="31171.00" arrivalLane="-329067231#5_1" arrivalPos="103.56" arrivalPosLat="0.00" arrivalSpeed="9.59" duration="190.00" routeLength="551.65" waitingTime="21.00" waitingCount="3" stopTime="71.00" timeLoss="76.89" rerouteNo="0" devices="tripinfo_pt_bus_104-O:0.1 routing_pt_bus_104-O:0.1" vType="pt_bus" speedFactor="1.00" vaporized=""/>
    <tripinfo id="pt_bus_138-E:0.1" depart="31019.00" departLane="561490751#0_1" departPos="6.45" departPosLat="0.00" departSpeed="0.00" departDelay="0.00" arrival="31201.00" arrivalLane="165217839#2_1" arrivalPos="19.05" arrivalPosLat="0.00" arrivalSpeed="3.34" duration="182.00" routeLength="403.40" waitingTime="19.00" waitingCount="4" stopTime="89.00" timeLoss="61.65" rerouteNo="0" devices="tripinfo_pt_bus_138-E:0.1 routing_pt_bus_138-E:0.1" vType="pt_bus" speedFactor="1.00" vaporized=""/>
    <tripinfo id="pt_bus_138-O:0.1" depart="31026.00" departLane="329694558_1" departPos="12.10" departPosLat="0.00" departSpeed="0.00" departDelay="6.00" arrival="31208.00" arrivalLane="-329067231#5_1" arrivalPos="103.56" arrivalPosLat="0.00" arrivalSpeed="8.84" duration="182.00" routeLength="551.65" waitingTime="10.00" waitingCount="4" stopTime="76.00" timeLoss="64.71" rerouteNo="0" devices="tripinfo_pt_bus_138-O:0.1 routing_pt_bus_138-O:0.1" vType="pt_bus" speedFactor="1.00" vaporized=""/>
    <tripinfo id="pt_bus_90-E:0.1" depart="30971.00" departLane="165217874_1" departPos="12.10" departPosLat="0.00" departSpeed="0.00" departDelay="0.00" arrival="31216.00" arrivalLane="92352263#2_1" arrivalPos="169.33" arrivalPosLat="0.00" arrivalSpeed="1.99" duration="245.00" routeLength="598.21" waitingTime="21.00" waitingCount="3" stopTime="119.00" timeLoss="60.01" rerouteNo="0" devices="tripinfo_pt_bus_90-E:0.1 routing_pt_bus_90-E:0.1" vType="pt_bus" speedFactor="1.00" vaporized=""/>
    <tripinfo id="pt_bus_166-N:0.1" depart="31022.00" departLane="-41258974#1_1" departPos="12.10" departPosLat="0.00" departSpeed="0.00" departDelay="0.00" arrival="31248.00" arrivalLane="727849147#0_1" arrivalPos="52.79" arrivalPosLat="0.00" arrivalSpeed="4.03" duration="226.00" routeLength="531.54" waitingTime="29.00" waitingCount="2" stopTime="107.00" timeLoss="84.86" rerouteNo="0" devices="tripinfo_pt_bus_166-N:0.1 routing_pt_bus_166-N:0.1" vType="pt_bus" speedFactor="1.00" vaporized=""/>
    <tripinfo id="pt_bus_108-O:0.1" depart="30989.00" departLane="-329694557_1" departPos="12.10" departPosLat="0.00" departSpeed="0.00" departDelay="0.00" arrival="31249.00" arrivalLane="463671314#1_1" arrivalPos="145.35" arrivalPosLat="0.00" arrivalSpeed="3.13" duration="260.00" routeLength="739.57" waitingTime="2.00" waitingCount="2" stopTime="155.00" timeLoss="41.14" rerouteNo="0" devices="tripinfo_pt_bus_108-O:0.1 routing_pt_bus_108-O:0.1" vType="pt_bus" speedFactor="1.00" vaporized=""/>