<?xml version="1.0" encoding="UTF-8"?>

<!-- generated on 2022-09-25 14:36:46 by Eclipse SUMO sumo Version 1.14.1
<configuration xmlns:xsi="http://www.w3.org/2001/XMLSchema-instance" xsi:noNamespaceSchemaLocation="http://sumo.dlr.de/xsd/sumoConfiguration.xsd">

    <input>
        <net-file value="osm.net.xml"/>
        <route-files value="trips.trips.xml"/>
        <additional-files value="osm_stops.add.xml"/>
    </input>

    <output>
        <vehroute-output value="vehroutes.xml"/>
        <stop-output value="stopinfos.xml"/>
    </output>

    <time>
        <begin value="0"/>
    </time>

    <processing>
        <ignore-route-errors value="true"/>
    </processing>

    <routing>
        <device.rerouting.adaptation-interval value="0"/>
    </routing>

    <report>
        <aggregate-warnings value="5"/>
        <error-log value="trips.trips.xml.errorlog"/>
        <no-step-log value="true"/>
    </report>

</configuration>
-->

<routes xmlns:xsi="http://www.w3.org/2001/XMLSchema-instance" xsi:noNamespaceSchemaLocation="http://sumo.dlr.de/xsd/routes_file.xsd">
    <vehicle id="11_bus_144-O:0" type="pt_bus" depart="98.00" departLane="1" arrival="228.00">
        <route edges="465159973 727849147#0 727849147#1 48680974#0 329694550 165217772#0 165217772#1"/>
        <stop busStop="6010980478" duration="30.00"/>
        <stop busStop="6010967053" duration="30.00"/>
    </vehicle>

    <vehicle id="22_bus_57-O:0" type="pt_bus" depart="166.00" departLane="1" arrival="270.00">
        <route edges="-1042470293#2 -1042470293#1 -1042470293#0 -20113825#1 -20113825#0"/>
        <stop busStop="-2687686456" duration="30.00"/>
        <stop busStop="-6010980123" duration="30.00"/>
    </vehicle>

    <vehicle id="9_bus_24-E:0" type="pt_bus" depart="60.00" departLane="1" arrival="336.00">
        <route edges="561490751#0 561490751#2 561490749 561490748#0 561490748#1 465408864#0 465408864#3 465408864#4 465408857#0 465408857#1 465408857#2 465408857#3 465408862#1 465408862#2 465408862#3 465408862#4 465411711#1 165217870#1"/>
        <stop busStop="6010981247" duration="30.00"/>
        <stop busStop="6010979145" duration="30.00"/>
        <stop busStop="6010971302" duration="30.00"/>
        <stop busStop="6010965396" duration="30.00"/>
        <stop busStop="6010964910" duration="30.00"/>
    </vehicle>

    <vehicle id="4_bus_165-N:0" type="pt_bus" depart="27.00" departLane="1" arrival="343.00">
        <route edges="-165217827#4 -165217827#3 -165217827#2 -165217827#1 -41258974#2 -41258974#1 -41258974#0 -143920958#3 -143920958#2 -143920958#1 -143920958#0 4872827 453745825#0 453745825#1 165217806 727849147#0"/>
        <stop busStop="-504318025" duration="30.00"/>
        <stop busStop="-6010971144" duration="30.00"/>
        <stop busStop="-1457825329" duration="30.00"/>
        <stop busStop="1457813196" duration="30.00"/>
        <stop busStop="6010966218" duration="30.00"/>
    </vehicle>

    <vehicle id="19_bus_15-E:0" type="pt_bus" depart="139.00" departLane="1" arrival="380.00">
        <route edges="394910074#0 329694554#0 329694554#1 329694554#2 329694554#3 329694554#4 329694554#5 329694554#7 329694554#10 329694554#11"/>
        <stop busStop="6010966061" duration="30.00"/>
        <stop busStop="6010977514" duration="30.00"/>
        <stop busStop="6010968682" duration="30.00"/>
        <stop busStop="6010975640" duration="30.00"/>
    </vehicle>

    <vehicle id="1_bus_747-E:0" type="pt_bus" depart="15.00" departLane="1" arrival="388.00">
        <route edges="792160913#1 463671313#1 463671313#2 463671313#3 231387458#0 231387458#1 231387458#2 231387458#3 728796869#0 728796869#2 329989224#0 329989224#1 329989224#2 453964887#0 453964892#1 455083968#1 455083976#0 41258973#1 41258973#2 41258976#1 41258976#3 41258976#4 111771070 465656094#0 465656094#1 111771067#1 -347724804 347724804 -111771067#1 -465656094#1 -465656094#0 -111771070 -41258976#4 -41258976#3 -41258976#2"/>
        <stop busStop="2106085874" duration="30.00"/>
        <stop busStop="-6010970018" duration="30.00"/>
    </vehicle>

    <vehicle id="14_bus_427-O:0" type="pt_bus" depart="125.00" departLane="1" arrival="390.00">
        <route edges="455083984#2 455083979#1 455083981#1 -455083994#2 -455083993#3 -455083993#2 -455083993#0 330153470#0 330153470#1 330150736#0"/>
        <stop busStop="4030794085" duration="30.00"/>
        <stop busStop="6010968827" duration="30.00"/>
        <stop busStop="-6010981282" duration="30.00"/>
        <stop busStop="6010966040" duration="30.00"/>
    </vehicle>

    <vehicle id="12_bus_144-E:0" type="pt_bus" depart="102.00" departLane="1" arrival="398.00">
        <route edges="329694559#0 329694559#1 329694559#2 329694559#3 231387459 453949528 474841418#0 474841418#1 165217771#2 918602130 918602131#0 918602131#1 453745794#1 453745794#2 165217769 453745799 143920959#0"/>
        <stop busStop="6010967076" duration="30.00"/>
        <stop busStop="6010974370" duration="30.00"/>
        <stop busStop="6010978061" duration="30.00"/>
        <stop busStop="6010970373" duration="30.00"/>
        <stop busStop="6010965736" duration="30.00"/>
    </vehicle>

    <vehicle id="13_bus_427-E:0" type="pt_bus" depart="119.00" departLane="1" arrival="419.00">
        <route edges="330150736#0 330150736#1 330150434#0 330150434#1 330150434#2 330150434#5 330150434#6 330150434#7 330150434#8 1051530916#0 41258973#1 41258973#2 455083980#0 455083970#1"/>
        <stop busStop="6010966040" duration="30.00"/>
        <stop busStop="6010977969" duration="30.00"/>
        <stop busStop="6010971108" duration="30.00"/>
        <stop busStop="6010975333" duration="30.00"/>
    </vehicle>

    <vehicle id="33_bus_75-N:0" type="pt_bus" depart="331.00" departLane="1" arrival="465.00">
        <route edges="456353760#1 37722302#1"/>
        <stop busStop="427618243" duration="30.00"/>
        <stop busStop="427618242" duration="30.00"/>
    </vehicle>

    <vehicle id="10_bus_24-O:0" type="pt_bus" depart="93.00" departLane="1" arrival="472.00">
        <route edges="-465408860#0 -165217870#2 -165217870#1 -465411712#0 -465408862#4 -465408862#3 -465408862#2 -465408862#1 -465408857#3 -465408857#2 -465408857#1 -465408857#0 -465408864#4 -465408864#3 -465408864#0 561490750#0 561490750#2 561490747 561490746#0 561490746#1 -329067231#5"/>
        <stop busStop="-6010970054" duration="30.00"/>
        <stop busStop="-6010971829" duration="30.00"/>
        <stop busStop="-6010981492" duration="30.00"/>
        <stop busStop="-6010981038" duration="30.00"/>
        <stop busStop="6010968874" duration="30.00"/>
        <stop busStop="-6010980155" duration="30.00"/>
    </vehicle>

    <vehicle id="17_bus_150-E:0" type="pt_bus" depart="133.00" departLane="1" arrival="499.00">
        <route edges="394910074#0 329694553#1 329694553#2 936656919 37852832#0 37852832#1 37852832#2 37852832#3 329989224#0 329989224#1 329989224#2 453964887#0 453964892#1 455083968#1 455083976#0 41258973#1 41258973#2 455083980#0 455083970#1"/>
        <stop busStop="6010973662@8873279" duration="30.00"/>
        <stop busStop="6010973748" duration="30.00"/>
        <stop busStop="6010972047" duration="30.00"/>
        <stop busStop="6010971108" duration="30.00"/>
        <stop busStop="6010975333" duration="30.00"/>
    </vehicle>

    <vehicle id="39_bus_104-O:0" type="pt_bus" depart="381.00" departLane="1" arrival="555.00">
        <route edges="329694558 329694559#0 329694559#1 329694559#2 329694559#3 231387459 453949528 474841418#0 474841418#1 165217771#2 918602130 561490747 561490746#0 561490746#1 -329067231#5"/>
        <stop busStop="2519449677" duration="30.00"/>
        <stop busStop="6010974370" duration="30.00"/>
        <stop busStop="-6010980155" duration="30.00"/>
    </vehicle>

    <vehicle id="40_bus_104-E:0" type="pt_bus" depart="383.00" departLane="1" arrival="562.00">
        <route edges="561490751#0 561490751#2 453745797#0 453745797#1 474841415#0 474841415#1 453949527 165217770#0 165217839#0 165217839#2"/>
        <stop busStop="6010981247" duration="30.00"/>
        <stop busStop="6010968565" duration="30.00"/>
        <stop busStop="2519449678" duration="30.00"/>
    </vehicle>

    <vehicle id="43_bus_138-E:0" type="pt_bus" depart="419.00" departLane="1" arrival="601.00">
        <route edges="561490751#0 561490751#2 453745797#0 453745797#1 474841415#0 474841415#1 453949527 165217770#0 165217839#0 165217839#2"/>
        <stop busStop="6010981247" duration="30.00"/>
        <stop busStop="6010968565" duration="30.00"/>
        <stop busStop="2519449678" duration="30.00"/>
    </vehicle>

    <vehicle id="44_bus_138-O:0" type="pt_bus" depart="420.00" departLane="1" arrival="609.00">
        <route edges="329694558 329694559#0 329694559#1 329694559#2 329694559#3 231387459 453949528 474841418#0 474841418#1 165217771#2 918602130 561490747 561490746#0 561490746#1 -329067231#5"/>
        <stop busStop="2519449677" duration="30.00"/>
        <stop busStop="6010974370" duration="30.00"/>
        <stop busStop="-6010980155" duration="30.00"/>
    </vehicle>

    <vehicle id="38_bus_90-E:0" type="pt_bus" depart="371.00" departLane="1" arrival="616.00">
        <route edges="165217874 92352265 92352264 92352263#0 92352263#1 92352263#2"/>
        <stop busStop="6010969833" duration="30.00"/>
        <stop busStop="6010970824" duration="30.00"/>
        <stop busStop="6010965782" duration="30.00"/>
        <stop busStop="6010967477" duration="30.00"/>
    </vehicle>

    <vehicle id="45_bus_166-N:0" type="pt_bus" depart="422.00" departLane="1" arrival="629.00">
        <route edges="-41258974#1 -41258974#0 -143920958#3 -143920958#2 -143920958#1 -143920958#0 4872827 453745825#0 453745825#1 165217806 727849147#0"/>
        <stop busStop="-6010971144" duration="30.00"/>
        <stop busStop="-1457825329" duration="30.00"/>
        <stop busStop="1457813196" duration="30.00"/>
        <stop busStop="6010966218" duration="30.00"/>
    </vehicle>

    <vehicle id="20_bus_15-O:0" type="pt_bus" depart="160.00" departLane="1" arrival="637.00">
        <route edges="329384217#8 329384217#9 330153470#0 330153470#1 330150736#0 330150736#1 330150435#0 330150435#1 330150435#4 330150435#5 330150435#6 330150435#7 330150435#8 330150435#9 1042466503#0 1042466503#1 1042466503#2 329694553#1 329694553#2 -329694557 329694558 329694559#0 329694559#1 329694559#2 329694559#3 165217839#0 165217839#2"/>
        <stop busStop="6010973621" duration="30.00"/>
        <stop busStop="6010969519" duration="30.00"/>
        <stop busStop="6010981014" duration="30.00"/>
        <stop busStop="6010970071" duration="30.00"/>
        <stop busStop="6010965893" duration="30.00"/>
        <stop busStop="6010966061@9320162" duration="30.00"/>
    </vehicle>

    <vehicle id="42_bus_108-O:0" type="pt_bus" depart="389.00" departLane="1" arrival="650.00">
        <route edges="-329694557 575547253#0 200638835#0 200638835#2 200638835#3 463671314#0 463671314#1"/>
        <stop busStop="-6010981242" duration="30.00"/>
        <stop busStop="6010981721" duration="30.00"/>
        <stop busStop="6010970060" duration="30.00"/>
        <stop busStop="6010970078" duration="30.00"/>
    </vehicle>

    <vehicle id="41_bus_108-E:0" type="pt_bus" depart="388.00" departLane="1" arrival="655.00">
        <route edges="509777703#0 463671313#1 463671313#2 463671313#3 231387458#0 231387458#1 231387458#2 231387458#3 231387460#0 329694558 329694559#0 329694559#1 329694559#2 329694559#3"/>
        <stop busStop="6010965695" duration="30.00"/>
        <stop busStop="913940068" duration="30.00"/>
        <stop busStop="443938658" duration="30.00"/>
        <stop busStop="6010968869" duration="30.00"/>
    </vehicle>

    <vehicle id="37_bus_90-O:0" type="pt_bus" depart="365.00" departLane="1" arrival="656.00">
        <route edges="-329694557 329694558 329694559#0 329694559#1 329694559#2 329694559#3 -92352263#3 -92352263#1 -92352263#0 -92352264"/>
        <stop busStop="-6010975601" duration="30.00"/>
        <stop busStop="-6010980150" duration="30.00"/>
        <stop busStop="-6010973708" duration="30.00"/>
        <stop busStop="-6010972616" duration="30.00"/>
    </vehicle>

    <vehicle id="16_bus_150-O:0" type="pt_bus" depart="132.00" departLane="1" arrival="675.00">
        <route edges="455083984#2 455083979#1 455083981#1 330153472#1 330153472#2 465653665#1 463825906#1 463825907#1 463825907#2 337432401#0 337432401#1 337432401#3 337432401#4 337432401#5 337432401#6 231387460#0 329694558 329694559#0 329694559#1 329694559#2 329694559#3 165217839#0 165217839#2"/>
        <stop busStop="4030794085" duration="30.00"/>
        <stop busStop="6010968827" duration="30.00"/>
        <stop busStop="6010969566" duration="30.00"/>
        <stop busStop="445067518" duration="30.00"/>
        <stop busStop="6010968427" duration="30.00"/>
        <stop busStop="6010978235" duration="30.00"/>
        <stop busStop="6010968869" duration="30.00"/>
        <stop busStop="6010973662" duration="30.00"/>
    </vehicle>

    <vehicle id="7_bus_107-N:0" type="pt_bus" depart="55.00" departLane="1" arrival="693.00">
        <route edges="1042470293#0 1042470293#1 1042470293#2 1042470291 263213892 561511406 37722304 41651789#0 41651789#1 129587033 914737889#1 914737889#2 455718964#0 455712869#1 455712867#1 456353760#1 37722302#1"/>
        <stop busStop="2091616663" duration="30.00"/>
        <stop busStop="2687686469" duration="30.00"/>
        <stop busStop="2687686489" duration="30.00"/>
        <stop busStop="5754358290" duration="30.00"/>
        <stop busStop="5754358294" duration="30.00"/>
        <stop busStop="427618244" duration="30.00"/>
        <stop busStop="427618243" duration="30.00"/>
        <stop busStop="427618242" duration="30.00"/>
    </vehicle>

    <vehicle id="8_bus_107-S:0" type="pt_bus" depart="58.00" departLane="1" arrival="702.00">
        <route edges="-354710422#0 -37722302#1 -456353760#1 -455712867#1 -455712869#1 -455718964#0 492899793#0 492899793#1 129587031 -352905266 -41651789#0 -37722304 561511409 -263213892 -1042470291 -1042470293#2 -1042470293#1 -1042470293#0"/>
        <stop busStop="-6010969844" duration="30.00"/>
        <stop busStop="-427618245" duration="30.00"/>
        <stop busStop="-5754358296" duration="30.00"/>
        <stop busStop="-5754358295" duration="30.00"/>
        <stop busStop="5754358289" duration="30.00"/>
        <stop busStop="-2687686486" duration="30.00"/>
        <stop busStop="-2701338580" duration="30.00"/>
        <stop busStop="-2091616661" duration="30.00"/>
    </vehicle>

    <vehicle id="28_bus_66-N:0" type="pt_bus" depart="227.00" departLane="1" arrival="776.00">
        <route edges="1051530916#0 41258973#1 41258973#2 -455083994#2 -455083993#3 -455083993#2 -455083993#0 -165217827#4 -165217827#3 -165217827#2 -165217827#1 -41258974#2 -41258974#1 -41258974#0 -143920958#3 -143920958#2 -143920958#1 -143920958#0 4872827 453745825#0 453745825#1 165217806 727849147#0"/>
        <stop busStop="6010977887@9320535" duration="30.00"/>
        <stop busStop="-6010965967" duration="30.00"/>
        <stop busStop="-4034535844" duration="30.00"/>
        <stop busStop="-6010971144" duration="30.00"/>
        <stop busStop="-1457825329" duration="30.00"/>
        <stop busStop="1457813196" duration="30.00"/>
        <stop busStop="6010966218" duration="30.00"/>
    </vehicle>

    <vehicle id="27_bus_66-S:0" type="pt_bus" depart="222.00" departLane="1" arrival="805.00">
        <route edges="48678910#0 48678910#1 143920958#0 143920958#1 143920958#2 143920958#3 165217834#0 165217834#1 165217834#4 165217834#7 165217834#8 165217834#9 330150434#0 330150434#1 330150434#2 330150434#5 330150434#6 330150434#7 330150434#8 1051530916#0 41258973#1 41258973#2 -455083994#2 -455083993#3 -455083993#2"/>
        <stop busStop="1465572617@9320534" duration="30.00"/>
        <stop busStop="6010975324" duration="30.00"/>
        <stop busStop="6010970338" duration="30.00"/>
        <stop busStop="504318024" duration="30.00"/>
        <stop busStop="6010977969" duration="30.00"/>
        <stop busStop="6010974344" duration="30.00"/>
        <stop busStop="6010977887" duration="30.00"/>
        <stop busStop="-6010965967" duration="30.00"/>
        <stop busStop="-4034535844" duration="30.00"/>
    </vehicle>

    <vehicle id="32_bus_74-N:0" type="pt_bus" depart="326.00" departLane="1" arrival="864.00">
        <route edges="37722304 41651789#0 41651789#1 129587033 914737889#1 914737889#2 455718964#0 455712869#1 455712867#1 456353760#1 37722302#1"/>
        <stop busStop="2687686489" duration="30.00"/>
        <stop busStop="5754358290" duration="30.00"/>
        <stop busStop="5754358294" duration="30.00"/>
        <stop busStop="427618244" duration="30.00"/>
        <stop busStop="427618243" duration="30.00"/>
        <stop busStop="427618242" duration="30.00"/>
    </vehicle>

    <vehicle id="52_bus_36-O:0" type="pt_bus" depart="497.00" departLane="1" arrival="903.00">
        <route edges="975251637#1 975251637#2 111771067#1 111771067#2 111771067#3 111771067#4 111771067#5 329988460#1 329988460#3 329988460#4 165217829#0 165217829#1 165217829#4 165217829#5 165217829#6 165217829#9 165217829#10 165217829#11 545490137#1"/>
        <stop busStop="6010969810" duration="30.00"/>
        <stop busStop="6010965221" duration="30.00"/>
        <stop busStop="2264682032" duration="30.00"/>
        <stop busStop="2687914658" duration="30.00"/>
        <stop busStop="2687914654" duration="30.00"/>
        <stop busStop="2687914649" duration="30.00"/>
    </vehicle>

    <vehicle id="18_bus_165-S:0" type="pt_bus" depart="136.00" departLane="1" arrival="934.00">
        <route edges="453745802 143920958#2 143920958#3 165217834#0 165217834#1 165217834#4 165217834#7 165217834#8 165217834#9 330150434#0 330150434#1 330150434#2 330150434#5 330150434#6 330150434#7 330150434#8 1051530916#0 41258973#1 41258973#2 -455083994#2 -455083993#3 -455083993#2"/>
        <stop busStop="1465572617" duration="30.00"/>
        <stop busStop="6010975324" duration="30.00"/>
        <stop busStop="6010970338" duration="30.00"/>
        <stop busStop="504318024" duration="30.00"/>
        <stop busStop="6010977969" duration="30.00"/>
        <stop busStop="6010977887" duration="30.00"/>
        <stop busStop="-6010965967" duration="30.00"/>
        <stop busStop="-504318025@8873299" duration="30.00"/>
    </vehicle>

    <vehicle id="24_bus_61-E:0" type="pt_bus" depart="201.00" departLane="1" arrival="977.00">
        <route edges="122076249 263213892 561511406 37722304 41651789#0 41651789#1 129587033 914737889#1 914737889#2 455718964#0 37722301#2 37722301#3 361815166#0 352392846#1 360802894#1"/>
        <stop busStop="2687686460" duration="30.00"/>
        <stop busStop="2687686489" duration="30.00"/>
        <stop busStop="5754358290" duration="30.00"/>
        <stop busStop="5754358291" duration="30.00"/>
        <stop busStop="6274677573" duration="30.00"/>
    </vehicle>

    <vehicle id="51_bus_36-E:0" type="pt_bus" depart="485.00" departLane="1" arrival="1037.00">
        <route edges="-545490137#1 -165217829#11 -165217829#10 -165217829#9 -165217829#6 -165217829#5 -165217829#4 -165217829#1 -165217829#0 -329988460#4 -329988460#3 -329988460#1 329988459#1 329988459#2 329988459#3 329988459#4 329988459#7 329988459#8 329988459#9 133806980#1 133806980#3 133806980#4 133806980#5"/>
        <stop busStop="-2687914648" duration="30.00"/>
        <stop busStop="-2687914652" duration="30.00"/>
        <stop busStop="-6274677571" duration="30.00"/>
        <stop busStop="-2264682033" duration="30.00"/>
        <stop busStop="-6010970163" duration="30.00"/>
        <stop busStop="6010975602" duration="30.00"/>
        <stop busStop="6010978137" duration="30.00"/>
        <stop busStop="6010975695" duration="30.00"/>
    </vehicle>

    <vehicle id="46_bus_166-S:0" type="pt_bus" depart="474.00" departLane="1" arrival="1261.00">
        <route edges="453745802 143920958#2 143920958#3 165217834#0 165217834#1 165217834#4 165217834#7 165217834#8 165217834#9 330150434#0 330150434#1 330150434#2 330150434#5 330150434#6 330150434#7 330150434#8 1051530916#0 41258973#1 41258973#2 -455083994#2"/>
        <stop busStop="1465572617" duration="30.00"/>
        <stop busStop="6010975324" duration="30.00"/>
        <stop busStop="6010970338" duration="30.00"/>
        <stop busStop="504318024" duration="30.00"/>
        <stop busStop="6010977969" duration="30.00"/>
        <stop busStop="6010974344" duration="30.00"/>
        <stop busStop="6010977887" duration="30.00"/>
        <stop busStop="-6010965967" duration="30.00"/>
        <stop busStop="-6010981282" duration="30.00"/>
    </vehicle>

    <vehicle id="54_bus_35-O:0" type="pt_bus" depart="517.00" departLane="1" arrival="1371.00">
        <route edges="-360802894#1 -352392846#1 -361815166#0 -37722301#3 -37722301#2 -455718964#0 492899793#0 492899793#1 -455713130#2 -455713130#1 -455722372#1 -455722372#0 -455722367#1 -455722369#0 -573448691#2 -573448691#1 -573448691#0 -573448690#1 1041940066#1 1041940066#3 1041940066#4 1041940066#5 1041940066#6 1041940066#7 1041940066#8 165217829#0 165217829#1 165217829#4 165217829#5 165217829#6 165217829#9 165217829#10 165217829#11 545490137#1"/>
        <stop busStop="-6010981007" duration="30.00"/>
        <stop busStop="-5754358293" duration="30.00"/>
        <stop busStop="-5754358292" duration="30.00"/>
        <stop busStop="5754358289" duration="30.00"/>
        <stop busStop="-6010969842" duration="30.00"/>
        <stop busStop="-6010968651" duration="30.00"/>
        <stop busStop="-6010981124" duration="30.00"/>
        <stop busStop="-6010970833" duration="30.00"/>
        <stop busStop="6010965891" duration="30.00"/>
        <stop busStop="6010964698" duration="30.00"/>
        <stop busStop="2687914658" duration="30.00"/>
        <stop busStop="2687914654" duration="30.00"/>
        <stop busStop="2687914649" duration="30.00"/>
    </vehicle>

    <vehicle id="21_bus_57-E:0" type="pt_bus" depart="165.00" departLane="1" arrival="1415.00">
        <route edges="330150435#0 330150435#1 330150435#4 330150435#5 330150435#6 330150435#7 330150435#8 330150435#9 1042466503#0 1042466503#1 1042466503#2 329694554#0 329694554#1 329694554#2 329694554#3 329694554#4 329694554#5 329694554#7 329694554#10 329694554#11 455083994#1 41258976#1 41258976#3 41258976#4 111771070 465656094#0 465656094#1 111771067#1 -347724804 347724804 -111771067#1 -465656094#1 25367003#0 25367003#1 103896396#8 103974914#1 673699710#4 975251637#0 975251637#1 975251637#2 111771067#1 111771067#2 111771067#3 111771067#4 111771067#5 329988460#1 329988460#3 329988460#4 111771071#1 111771071#2 111771071#3 -1042467341#7 -1042467341#4 -1042467341#1 1042467342#1 1042467342#4 816197807 52135931#2 52135931#3 463595256 20113489#0 20113489#1"/>
        <stop busStop="6010974358" duration="30.00"/>
        <stop busStop="6010981014" duration="30.00"/>
        <stop busStop="6010970071" duration="30.00"/>
        <stop busStop="2519454983" duration="30.00"/>
        <stop busStop="6010977514" duration="30.00"/>
        <stop busStop="6010968682" duration="30.00"/>
        <stop busStop="6010966051" duration="30.00"/>
        <stop busStop="6010981200" duration="30.00"/>
        <stop busStop="-6010965405" duration="30.00"/>
        <stop busStop="6010965221" duration="30.00"/>
        <stop busStop="2264682032" duration="30.00"/>
        <stop busStop="6010971347" duration="30.00"/>
        <stop busStop="-6010968609" duration="30.00"/>
        <stop busStop="6274677575" duration="30.00"/>
        <stop busStop="6010975289" duration="30.00"/>
        <stop busStop="2091616655" duration="30.00"/>
    </vehicle>

    <vehicle id="53_bus_35-E:0" type="pt_bus" depart="508.00" departLane="1" arrival="1474.00">
        <route edges="-545490137#1 -165217829#11 -165217829#10 -165217829#9 -165217829#6 -165217829#5 -165217829#4 -165217829#1 -165217829#0 -1041940066#8 -1041940066#7 -1041940066#6 -1041940066#5 -1041940066#4 -1041940066#3 -1041940066#1 573448690#1 573448691#0 573448691#1 573448691#2 573448691#3 455722367#1 455722372#0 455722372#1 455713130#1 455713130#2 129587031 -352905266 561782606#0 561782606#1 561782607#0 561782607#1 41651789#1 129587033 914737889#1 914737889#2 455718964#0 37722301#2 37722301#3 361815166#0 352392846#1 360802894#1"/>
        <stop busStop="-2687914648" duration="30.00"/>
        <stop busStop="-2687914652" duration="30.00"/>
        <stop busStop="-6274677571" duration="30.00"/>
        <stop busStop="-6010972098" duration="30.00"/>
        <stop busStop="-6010969834" duration="30.00"/>
        <stop busStop="-6010966435" duration="30.00"/>
        <stop busStop="6010970597" duration="30.00"/>
        <stop busStop="6010967058" duration="30.00"/>
        <stop busStop="6010974583" duration="30.00"/>
        <stop busStop="5754358290" duration="30.00"/>
        <stop busStop="5754358291" duration="30.00"/>
        <stop busStop="6274677573" duration="30.00"/>
    </vehicle>

    <vehicle id="23_bus_61-O:0" type="pt_bus" depart="173.00" departLane="1" arrival="1587.00">
        <route edges="360802894#1 361815166#0 37722301#2 20112461#4 983430900#1 361815165#4 -37722301#3 -37722301#2 165325650#1 -165325651#2 455718965#1 455718964#0 165325650#1 991016331#0 991016331#1 -991016331#1 -991016331#0 -165325650#1 -455718964#0 492899793#0 492899793#1 129587031 -352905266 561782606#0 561782606#1 -453299274#10 -453299274#9 -453299274#8 37722303 37722304 41651789#0 561782606#0 561782606#1 561782607#0 561782607#1 -41651789#0 -37722304 561511409 -263213892 -122076249 -199121731#1 -199121731#0 199121731#0 199121731#1 122076249"/>
        <stop busStop="6010981007" duration="30.00"/>
        <stop busStop="5754358293" duration="30.00"/>
        <stop busStop="5754358292" duration="30.00"/>
        <stop busStop="5754358289@9320523" duration="30.00"/>
        <stop busStop="2687686486" duration="30.00"/>
        <stop busStop="2687686451" duration="30.00"/>
    </vehicle>

    <vehicle id="6_subway_1:0" type="pt_subway" depart="52.00" departLane="0" arrival="3390.00">
        <route edges="164831271 784099214#0 784099214#1 -784099214#1 -784099214#0 -164831271 164831271 784099214#0 784099214#1 -784099214#1 -784099214#0 -164831271 164831271 784099214#0 784099214#1 -784099214#1 -784099214#0 -164831271 164831271 784099214#0 784099214#1 -784099214#1 -784099214#0 -164831271 164831271 784099214#0 784099214#1"/>
        <stop busStop="246656713" duration="30.00"/>
        <stop busStop="246656708" duration="30.00"/>
        <stop busStop="246656707" duration="30.00"/>
        <stop busStop="246655684" duration="30.00"/>
        <stop busStop="246654576" duration="30.00"/>
        <stop busStop="26232890" duration="30.00"/>
        <stop busStop="264271702" duration="30.00"/>
        <stop busStop="218356349" duration="30.00"/>
        <stop busStop="218356337" duration="30.00"/>
        <stop busStop="218283857" duration="30.00"/>
        <stop busStop="213403939" duration="30.00"/>
        <stop busStop="213403941" duration="30.00"/>
        <stop busStop="5228487326" duration="30.00"/>
        <stop busStop="208949406" duration="30.00"/>
        <stop busStop="208949390" duration="30.00"/>
        <stop busStop="208949385" duration="30.00"/>
        <stop busStop="208949381" duration="30.00"/>
        <stop busStop="213329687" duration="30.00"/>
        <stop busStop="-3676828784" duration="30.00"/>
        <stop busStop="213331953" duration="30.00"/>
        <stop busStop="-311564344" duration="30.00"/>
        <stop busStop="311564349" duration="30.00"/>
        <stop busStop="-2471652365" duration="30.00"/>
        <stop busStop="225689808" duration="30.00"/>
        <stop busStop="-225690774" duration="30.00"/>
        <stop busStop="311564466" duration="30.00"/>
    </vehicle>

    <vehicle id="15_subway_1:1" type="pt_subway" depart="131.00" departLane="0" arrival="3711.00">
        <route edges="784099214#1 -784099214#1 -784099214#0 -164831271 164831271 784099214#0 784099214#1 -784099214#1 -784099214#0 -164831271 164831271 784099214#0 784099214#1 -784099214#1 -784099214#0 -164831271 164831271 784099214#0 784099214#1 -784099214#1 -784099214#0 -164831271"/>
        <stop busStop="311564466" duration="30.00"/>
        <stop busStop="-225690774" duration="30.00"/>
        <stop busStop="-225689808" duration="30.00"/>
        <stop busStop="-2471652365" duration="30.00"/>
        <stop busStop="-311564349" duration="30.00"/>
        <stop busStop="-311564344" duration="30.00"/>
        <stop busStop="-213331953" duration="30.00"/>
        <stop busStop="-5330993593" duration="30.00"/>
        <stop busStop="213329687" duration="30.00"/>
        <stop busStop="-208949374" duration="30.00"/>
        <stop busStop="-208949381" duration="30.00"/>
        <stop busStop="-208949385" duration="30.00"/>
        <stop busStop="-208949390" duration="30.00"/>
        <stop busStop="-208949406" duration="30.00"/>
        <stop busStop="-5228487326" duration="30.00"/>
        <stop busStop="-213403941" duration="30.00"/>
        <stop busStop="-213403939" duration="30.00"/>
        <stop busStop="218283857" duration="30.00"/>
        <stop busStop="-218356337" duration="30.00"/>
        <stop busStop="-218356349" duration="30.00"/>
        <stop busStop="-264271702" duration="30.00"/>
        <stop busStop="-26232890" duration="30.00"/>
        <stop busStop="246654576" duration="30.00"/>
        <stop busStop="-246655684" duration="30.00"/>
        <stop busStop="-246656707" duration="30.00"/>
        <stop busStop="-246656708" duration="30.00"/>
        <stop busStop="-246656713" duration="30.00"/>
    </vehicle>

</routes>
